  1000
  Step: 1000
H   9.32   1.01  23.96
H  37.50  21.73  25.11
H   0.29  26.35  48.00
H  44.01  37.76   5.62
H  45.36  43.54  11.29
H  34.63   1.69   8.28
H  16.36   8.17  39.26
H  44.09  17.38  18.15
H   4.50   3.38  36.54
H  30.51   2.84  25.63
H  20.78  43.86  37.13
H  33.08  26.38  47.13
H  51.03  17.48  12.41
H  41.20   3.29  18.86
H   3.62  16.52   3.64
H  15.01  40.87  46.83
H  41.00  29.06  31.86
H  18.70   8.73  22.56
H  37.90   3.25   1.07
H  39.86  15.52  36.27
H  38.00  48.25  20.71
H  18.54  41.72  39.54
H  33.76  41.95  33.22
H  48.76  17.02  34.70
H   8.76   7.74  16.82
H  27.40  10.40  33.39
H   1.00  39.29  23.42
H  36.04  38.94  23.09
H  19.02   8.74  41.06
H  43.09  37.98  45.27
H  33.52  36.00   9.98
H  39.70  17.28  22.65
H  16.49  29.39  34.07
H  29.77  16.46  11.28
H  43.70  15.63  22.67
H   2.20  14.12   4.31
H  17.78  36.69  50.38
H  32.34  13.93  33.97
H  32.43  42.71  27.61
H  47.39  24.99  15.59
H  26.84  47.71  37.44
H  24.40  25.05  30.16
H  23.16  28.48  50.23
H  48.23  43.48   6.57
H  31.27  18.39  48.26
H  16.23  48.14  12.33
H  21.74  49.65  30.80
H  51.46  29.69   7.85
H  36.88  26.98  26.14
H   7.06   7.50  48.08
H  49.45  49.96  18.51
H   0.35  29.59  38.71
H  34.78   4.78  11.45
H  10.29  47.47  34.21
H   3.29  12.73   0.74
H  13.17  28.06  28.49
H  24.74  47.35  18.41
H   3.66  26.01  13.44
H  39.53   5.03  28.59
H  12.78   2.74  43.02
H   4.05  49.25  36.52
H  47.15  42.13   9.87
H   9.10  49.73  15.05
H  42.80  10.10  12.92
H  33.76   0.60  39.18
H  45.48  16.57  15.45
H   1.43  21.86   3.38
H  29.72  35.58  29.39
H  31.23  31.02  46.69
H  31.38  43.71  18.06
H   7.27  11.48  41.03
H  11.88  39.96  46.70
H  28.16   7.41  32.25
H  19.63  46.99  11.57
H  11.75  27.29  24.01
H   8.04  18.81  31.20
H  24.34   3.09  21.48
H  21.51  23.15   1.23
H  14.17  49.16  45.67
H  48.66  39.25  22.45
H  44.48  15.98  30.42
H  30.38  22.80  12.95
H  17.09  33.25  14.69
H  33.05  20.61  31.05
H  42.85  28.23   0.95
H  38.36  25.97  40.29
H  25.58  16.08  43.41
H   8.97  14.39  25.04
H  44.48   5.96  17.52
H  24.44  33.98   4.59
H  39.07  28.81  26.75
H  19.70  16.27  46.06
H  51.40   9.06  10.94
H  34.50  39.55  42.57
H  15.64  10.81   3.75
H  19.46  29.09  45.13
H   2.27   6.14  32.23
H   5.69  48.41  33.77
H   1.45  33.55  14.47
H  12.46  34.37   6.26
H  27.75   4.70   3.40
H  32.76  41.16  22.25
H  20.80  36.29   3.93
H  13.67  47.25  48.92
H   1.99   0.16  39.72
H  23.37  39.44  33.26
H  24.74  37.80  29.29
H   0.81  24.11  45.62
H  38.89  33.00  34.33
H  42.24  15.07  20.39
H  28.52  38.67  15.45
H   7.38  15.92  23.50
H   6.88  34.88  45.16
H  17.70  49.47  21.70
H  24.49  51.14  36.12
H  26.15  39.03  24.48
H  34.60  11.11   5.71
H  30.99  27.09  23.83
H   6.08  48.34   5.78
H  50.04  16.45  14.58
H  48.62  49.69  36.24
H  49.41   9.05  44.31
H  31.98  15.29  30.85
H   6.62  44.08  30.87
H   5.54  11.36  15.09
H  20.43  15.02  13.53
H  28.52   7.60  38.96
H  23.30  21.06  29.66
H   6.25  47.01   9.59
H  28.30  49.91   7.20
H  36.15  50.44  51.51
H  18.14  30.46  47.84
H  32.30  45.15  36.08
H   1.91  17.87  46.23
H  24.25  22.45  15.77
H   6.75  33.91  16.03
H  48.63   3.39  44.42
H   4.78  42.59  23.69
H  40.15  25.29   7.85
H   7.15  48.86  39.52
H  30.85  10.84  20.79
H  30.79  31.57   5.58
H  34.25  37.55   0.86
H  44.34  29.83  41.98
H  23.37   4.95  14.65
H   1.95  19.71  29.99
H  43.55  12.14  36.51
H  25.80  31.10  12.49
H  31.98  23.39  26.40
H   0.25   0.35  25.53
H  19.48   6.98  18.32
H  32.37  25.19  17.85
H  39.83   2.76  45.83
H  38.66  21.19  36.66
H  48.58  33.87  34.57
H  36.31  47.36  46.00
H  14.45   1.16  14.37
H  18.83  12.80  23.65
H  18.79  24.90   0.21
H  39.61   5.37  16.42
H  28.49  39.79  44.58
H   1.17  39.67   4.58
H   7.68   4.93  23.32
H  41.99   3.57  11.25
H  41.47  42.59  10.35
H   2.91  33.83  41.07
H   2.57  27.03   7.34
H  31.08   5.82   6.82
H  27.96  48.98   1.48
H   5.14  10.45  42.14
H  12.18  15.96  24.24
H  42.36  13.23  22.73
H  24.57  25.84  23.06
H  41.64  10.34  26.09
H   6.78  45.07  21.98
H   2.31  36.36  11.15
H  48.14  11.43  31.95
H  39.58   5.34   9.52
H  22.82  14.68  16.59
H  11.91  18.34   1.02
H  41.52  44.97  41.85
H   6.58  13.13  45.40
H  45.84   8.83  20.52
H  17.51  26.74  23.60
H   3.19  41.20   6.71
H  24.69  43.46  36.09
H  21.12  41.34  51.38
H  24.82  45.77  26.94
H  18.55  49.41  42.99
H  44.88  13.59  25.45
H  25.63  39.09  17.45
H  33.93  12.71  20.09
H  45.99  38.12  18.77
H  14.39  31.19  24.57
H  51.08  15.31  47.63
H  12.13  41.45  44.76
H   9.77  22.96  36.77
H  21.31   5.56  39.70
H  25.17   9.54   2.65
H  26.93  15.12  42.07
H   8.15   0.85  46.95
H  19.38  42.78  29.98
H  45.56  48.53   4.36
H  14.43   9.47  49.48
H  35.93  47.88  50.96
H  40.95  45.22  48.66
H  31.52  42.40  50.40
H  24.39  11.21  34.42
H   1.12  18.68  21.23
H  41.63   1.24  16.64
H  13.59  35.75  45.90
H  24.85  43.65  21.84
H  24.02  17.88   9.56
H  46.06  31.16  13.87
H  27.86  20.94   1.91
H  36.04  44.89  31.49
H   7.64  21.70  10.53
H   8.81  15.22  46.34
H  43.60  41.05  48.00
H   5.58  11.33   2.24
H  51.05  32.79  20.43
H  29.25  44.94  14.82
H  12.65  42.48   1.28
H  47.90  17.95   1.73
H   8.16   2.25  40.22
H   2.87   2.76  31.81
H  10.86  17.30  40.67
H  22.00  37.73  14.58
H   3.74   4.73  42.58
H   6.32   4.06   8.12
H  26.98  35.60  25.56
H  32.11  25.72  38.50
H  31.22   9.10  17.38
H  51.38  23.21  35.04
H   8.92  34.96  36.10
H   8.29  48.69  20.39
H  17.90  35.06  47.60
H  46.12  26.75   0.90
H  25.13  32.11  43.27
H  10.46  24.09  33.16
H  35.60   2.40  45.31
H   5.88  44.18  44.68
H  31.69  27.99  18.08
H  20.10  47.67  34.02
H  26.95  18.97   0.01
H  48.40  47.80  47.88
H  41.02  10.69  47.88
H  47.22  38.05  43.09
H  41.39  29.93  36.03
H   3.91  19.89  41.62
H   5.09  19.44  30.67
H  23.28   3.74   8.85
H  34.45  28.35  30.44
H  46.90  48.26  15.20
H  46.98  24.42  33.25
H   6.11  24.32  49.11
H  48.92  22.70  15.77
H  49.85  26.54  50.40
H   1.82  30.73  14.58
H  23.47  11.91  38.07
H  35.81   1.09   4.55
H  38.64  43.06  23.28
H  39.05   1.89  10.63
H  17.34  50.13  34.60
H  34.58  42.58  37.36
H   3.47  44.67  35.74
H  11.15  30.77  23.37
H   1.50  41.49  17.80
H  16.38  30.96  50.29
H  22.19  24.29  10.17
H   5.85  37.56   9.46
H  27.26   8.60  41.05
H  10.88  39.87  22.99
H  38.75  18.57  49.91
H  26.00  21.01  21.46
H  15.73  34.76   8.99
H   6.29   0.92  10.32
H  42.12   2.82  26.86
H   6.35  20.07  20.82
H  31.70   0.21  14.32
H  39.38  39.25  40.84
H  29.84  39.01  22.49
H  16.31  41.99  20.53
H   5.14   0.36   7.69
H  37.29  13.53  45.04
H  32.28  48.82  31.21
H  39.66  25.93  44.92
H  47.61   2.22  18.88
H  49.63  11.71  26.42
H  20.98  50.28   5.15
H  25.36  19.57  45.91
H  16.93   8.16   6.19
H  21.27  50.94  46.42
H  27.68  26.87  32.12
H  38.44   2.90  48.52
H  45.94  24.18  16.32
H  27.44  26.06  16.43
H   9.87  38.48  43.95
H  33.62  15.02  22.59
H  12.45  48.82  15.81
H  18.25  33.51  38.10
H  23.34   7.12  21.20
H  14.14  19.11  17.36
H  21.56  41.71  42.60
H   8.93  12.26  17.79
H  35.19  38.05  38.05
H  11.18  11.54  51.08
H  30.42  39.41  10.56
H  32.01  15.20  25.09
H  22.95  44.44  18.61
H  37.77  47.14  27.86
H  44.29  12.07  21.61
H  51.63  40.24  45.78
H  31.09  19.33   7.35
H  44.76   5.94  48.28
H  48.06  49.11  40.32
H  35.87  21.99  40.00
H  30.04  26.48   6.99
H   6.16  34.88   7.18
H  36.32  22.50   6.64
H  29.03  40.89  51.20
H  12.83  23.15  27.35
H   3.55  35.38  28.03
H   3.61  29.86  51.06
H   6.43  37.26  27.29
H  16.96  17.22  51.01
H   5.61  30.45  27.78
H   0.40   9.70  51.54
H  45.84  16.81  21.17
H   4.57  12.93   9.99
H  29.66  50.87  29.91
H  20.78  20.76   2.53
H  51.64  43.55  40.27
H  36.31  20.50  34.55
H  40.24  37.86  47.14
H  41.10  17.18  26.13
H   4.87  21.68  33.10
H  11.20  29.84  17.24
H  12.01  18.61  30.74
H  25.24  19.41  41.11
H  33.22  30.26   5.93
H   1.03  19.28   6.27
H  37.25  45.54  37.15
H  22.97  43.28  36.98
H  26.96  31.30   9.40
H   1.03  47.55  50.01
H  24.13  28.93  38.27
H   5.14  37.29  41.12
H   9.73  27.78  44.44
H  49.02  21.36   7.88
H  37.65  31.77  25.49
H  22.86   2.54  51.51
H  18.66  21.18  19.66
H  30.52   1.84  39.52
H  38.41   0.25  33.33
H  15.85  15.04  44.29
H   4.70  20.89  46.30
H   4.48  31.42  13.34
H  11.88  17.45  36.86
H  21.66  36.97  47.54
H  47.22  27.71  13.26
H  32.67   4.78  17.70
H  15.67  49.30  28.97
H  20.28  14.61  27.38
H  27.45  44.43  25.80
H  50.43   2.65  31.41
H  21.95  15.72  25.21
H  51.58  20.58  48.63
H  27.53  20.28   3.74
H   4.59  44.74   6.90
H  13.62  19.66   6.28
H  10.59  11.63  22.09
H   7.09  31.55  24.18
H  35.82  10.41  12.52
H  21.71  22.30  17.77
H   7.21  25.77  19.25
H  19.44  42.41   4.61
H   9.89  49.48  17.94
H   3.23  11.90   3.86
H   1.68  16.25   9.45
H   5.25  42.55  28.93
H  44.77  20.81  21.17
H  28.94  34.18  25.55
H  12.96  28.82  48.90
H  31.34  20.42   4.25
H  50.93   1.10   0.37
H  17.30  47.71  17.85
H  47.22  44.87  16.29
H  29.02  19.46  45.00
H  38.38  33.45  29.10
H  32.33  36.39  45.08
H  12.30   9.53  19.39
H  40.54  44.30  21.07
H  27.04  38.59  39.30
H  40.08  27.16  34.12
H   6.83  27.16   0.80
H  23.57   5.43  45.60
H  45.47  32.23  47.52
H   6.63  35.93  21.47
H  35.93  41.86  47.59
H  49.11  28.01  47.35
H  22.01  37.39  27.41
H  46.88   4.60  40.75
H  25.21  45.81  46.31
H  33.26  42.83   9.03
H  39.68   1.55  30.23
H  22.18  49.20  15.12
H  46.32  47.78  25.73
H  30.35  24.90  48.54
H  34.12  22.04  10.25
H  27.20  10.62   5.02
H  23.79  14.97   4.54
H  37.03  44.93  17.02
H  20.05  21.29  30.96
H  19.98  48.02  40.36
H  14.44   4.32  46.41
H  38.89  18.55  34.38
H   9.22  17.95  36.73
H  28.46  32.14  28.38
H  21.96  24.65  35.69
H  50.37  12.94  46.03
H  16.11  26.86  15.38
H  49.89  35.69  16.64
H  42.61  30.59  28.27
H   8.59   9.55  34.32
H  18.97  12.36  11.66
H   4.37  21.17  34.50
H  39.62  15.06   0.48
H  12.60   8.17  23.54
H   1.61  38.76  29.36
H  38.87  49.03  48.35
H  23.55  43.14   1.70
H  43.00  39.74  22.40
H  18.33  30.14  12.67
H   2.51   0.38   2.81
H  44.66  28.79  20.59
H  41.69  29.99   4.36
H  36.15  22.67  32.10
H  49.79   2.62  48.48
H   9.42   5.33  16.93
H  38.57  32.48  38.54
H  39.03  48.70  16.96
H  43.38  23.34  25.23
H  50.62  46.37  30.21
H  20.13   3.67  13.22
H  18.34  33.00  41.73
H  19.89  21.96   7.49
H  45.99  13.08  41.90
H  36.26  17.87  11.58
H   5.43   7.25  41.16
H  50.14  33.83  12.91
H  40.53  31.70  43.01
H  27.40  36.64   9.65
H   9.73   4.34  45.01
H  26.38   6.74  46.68
H   4.26  28.91  19.12
H  43.38  40.13  28.68
H  18.69  38.95  42.01
H  24.74  34.90  42.06
H  19.78  28.42  11.02
H  22.92  14.22   6.55
H  41.91  32.35  32.83
H  46.53  41.90  21.16
H  14.67  27.38  45.31
H  49.57  49.80  21.08
H   9.58  21.46  21.26
H  40.17   8.53   6.83
H  17.40   9.46   8.87
H   4.72  19.95   8.02
H  46.33   1.09   7.55
H  13.22  45.72  37.53
H  13.77   2.79  38.38
H  13.72  47.26  20.85
H  24.73   9.46  41.85
H  49.25  43.25  37.09
H  20.21   3.88   1.22
H  27.88  41.42   8.78
H  20.07  21.99  34.18
H   3.79   2.67   9.06
H  27.84  22.23  50.03
H  28.15  47.16   5.76
H   1.08  43.90  23.36
H   5.10  29.57  29.48
H  13.93  45.72  42.84
H  45.00  21.33  29.00
H   5.67  33.40  49.34
H  46.35  20.40  13.24
H  29.95  29.14  39.28
H   2.55  38.17  48.20
H   8.94  21.59  25.23
H  45.13   7.27   1.02
H  17.21  45.37  12.48
H   8.49  37.05   1.85
H  35.98  24.22  22.60
H  42.25  19.86  25.18
H  13.91  42.55  41.49
H  39.22   2.48  22.87
H  28.42  27.96   0.82
H   8.66  32.81  39.09
H  20.29  13.56   3.48
O  15.62  17.36  49.37
O  34.29  45.43  22.52
O  41.19  44.23   8.46
O  49.39   5.63  29.87
O  20.41  37.10  15.80
O  32.94  36.06   3.56
O   7.66   5.83  37.99
O  23.88  45.95  14.71
O  41.78   8.38  14.31
O   3.15  43.77  45.60
O  22.68  17.70  42.90
O  23.36   9.16  29.08
O  31.67  37.46  37.28
O  16.68  40.27  24.44
O  22.62   3.52  16.88
O  30.03   7.18  20.30
O  14.28  27.93   8.01
O  34.55  18.10  51.15
O  50.36  39.52  38.60
O  43.16   7.56   7.36
O   1.15  15.71  37.74
O   7.53  49.36  24.62
O  20.02  34.24  21.42
O  43.10   6.27   4.00
O  29.33   8.45   9.47
O   1.15  38.88  19.32
O  21.47  26.40  14.64
O  15.18  11.82  11.27
O   8.92  44.81  39.31
O  50.85  32.30   9.02
O  25.77  46.90  31.74
O  45.05  12.85   8.67
O  49.99  25.47  45.81
O  29.17  16.42  36.42
O  23.94   5.41  38.15
O  51.54  43.82  34.72
O  40.52  41.23   0.12
O  45.88   0.03  51.71
O  33.08   7.27  39.26
O  51.03  37.56   6.96
O  14.44  40.78  31.36
O  25.30  14.24   8.58
O  17.00  19.12  15.62
O  40.55  10.26  13.73
O  26.61  23.00  23.19
O   2.19  24.01  41.83
O  46.77  40.63  18.01
O  33.17  19.08  24.07
O  49.85  26.04  34.75
O  23.97  32.65  29.26
O   1.55  12.56  36.82
O   2.76  34.61  30.76
O  31.96  41.09  12.51
O  48.45  50.79  45.68
O  40.35  13.70  44.22
O  49.06  49.45  46.04
O  24.35  29.38  33.23
O  28.09  46.40  26.98
O  27.09  36.58   6.30
O  23.26  17.56  13.79
O  11.87  42.00  50.21
O  39.37  49.21  26.89
O  16.21   1.03  12.42
O   4.45  29.91  46.55
O  24.17  20.42  32.43
O  21.17  30.19  16.84
O   7.06  30.53  37.86
O  37.87  30.34   4.06
O  32.73  13.52   2.94
O  21.80  43.22  21.10
O  27.16  48.31  18.03
O  18.87  37.22  31.04
O  47.02   5.59   4.67
O  45.64  26.50  41.13
O  24.43   2.59  39.56
O  18.29  25.12  32.44
O  33.00  39.81  30.91
O  10.96  38.10   7.91
O  44.49  50.01  45.41
O  24.50  23.38  45.66
O   1.06  46.45  14.23
O  17.98  16.54  24.14
O  37.40  51.53  21.02
O  11.77  15.00  30.82
O  38.82  30.57  45.08
O  33.82  50.85  33.29
O  38.27   0.94  41.52
O  39.71  22.52   8.21
O   6.39  14.86  37.20
O  25.54  27.75  46.45
O  40.57  29.30  51.14
O   3.32  30.85   9.58
O  30.12  29.80  36.08
O  42.71  22.26  16.85
O  50.51  21.63  19.53
O  19.33   5.14  37.82
O  46.53  48.01  30.53
O  18.45  41.55  16.03
O  10.81   5.90   6.00
O   7.30  46.32  22.72
O   1.92  20.27  14.96
O   1.24   4.58  41.72
O  20.84  45.87   7.34
O  18.36  47.62  29.69
O  46.77  44.82  29.78
O  35.81  48.88  12.81
O  42.41  44.80   3.36
O  17.43  26.00  39.05
O  20.09  25.21   4.10
O   8.40  18.62  24.53
O  50.06  14.50  35.64
O   5.71  40.68   2.68
O  25.71  31.06  48.04
O   5.20  41.42  18.88
O  19.43   9.82  39.76
O  20.00  35.24  29.09
O  21.59  36.38  11.43
O  43.78  40.31  18.32
O  27.27  41.10  41.98
O  44.40  43.81  42.36
O  35.43  10.33  51.56
O   5.59  12.21  19.67
O   0.38  13.57  48.49
O   5.19  35.15  37.43
O  47.52   5.37  33.95
O  48.61  45.38  19.92
O   5.28  24.32   9.43
O  11.64  51.51  51.49
O  50.34  16.99   8.65
O   3.37  40.76  22.57
O  31.98  22.79  44.14
O  40.73   6.06  49.37
O  15.39  26.51   2.05
O  17.90  13.31  40.74
O  42.68  28.27  33.85
O  22.09   8.04  43.60
O  20.16  21.47  50.43
O  50.90  17.13  43.32
O  41.01  16.75  29.70
O  47.94  25.30  22.80
O  24.64  46.56   6.24
O  35.92  24.43  41.07
O   6.37  29.54  32.45
O   9.17  14.92  17.20
O  34.34  48.41   0.33
O  35.49  32.66  51.65
O  23.38  41.32  26.69
O   5.06  34.35  35.64
O  48.70   9.12   5.01
O  49.77  15.30  17.70
O   3.51  18.81  10.11
O  16.52  29.18   7.45
O   6.29  27.83  51.11
O  39.12  20.43  12.44
O  41.96  45.93  30.47
O  27.82  12.23  46.95
O  15.99  20.19  29.06
O  47.59  10.90  46.26
O  41.94   8.92  21.13
O  47.58  33.72  13.44
O  51.41  27.55  23.07
O   2.42   9.50  24.88
O  27.03  42.97   4.46
O  30.08  12.76  43.84
O  27.47  41.98  22.59
O  30.69  11.03   8.50
O   8.27  23.32  14.22
O  20.12  38.93   0.99
O  51.07  49.90  13.82
O  42.20   6.38  32.11
O   6.56  18.43  48.04
O  29.78  21.32   4.77
O   9.49  44.80   3.53
O  31.71  50.99   3.10
O  18.89  25.83  12.53
O  50.69  47.34   2.27
O  11.31  45.07  29.49
O  38.68   1.11  38.47
O  10.44  35.96  41.58
O  48.11   7.27  34.12
O  10.32  33.14   1.88
O  32.30  40.56  46.15
O   6.42   3.38   3.96
O  35.03  37.26  41.26
O  39.18  11.86  33.93
O   3.03   9.30   6.01
O  47.83   0.10  16.89
O  30.34  19.67  30.77
O  33.77  34.34  36.40
O  22.74  37.49  38.40
O  36.23  36.57  45.84
O  44.39  48.75  37.68
O  45.31  50.75  18.02
O  24.74  25.68  10.74
O  19.75  21.44  46.35
O  44.79  33.74  16.95
O  38.70  27.99  30.50
O  11.23  37.67  28.48
O  29.96  22.34  38.77
O  28.73  29.49  33.97
O  25.98  37.63  14.95
O  39.43  38.77  16.68
O   4.19  38.91  35.29
O   0.91  31.84  39.95
O  20.41   2.29  25.06
O  21.83  20.05  22.69
O  23.36   9.64   8.01
O  47.07   5.34  18.40
O  22.87  27.66  43.03
O  30.30   0.93  27.78
O   6.54  35.38   2.62
O   6.51  13.81  29.95
O  21.77  43.74  45.45
O  32.43  48.59   7.97
O  18.55  11.25  47.17
O   6.40  22.83   3.82
O  47.83  30.74  10.31
O  45.94  42.09  34.39
O  32.39  26.12  31.69
O   4.22  19.28  13.07
O  41.03  33.23  45.35
O   9.17  49.72  29.62
O   4.00  36.04  23.63
O  24.60  20.44   0.62
O  26.07  34.38  51.07
O  46.26  14.31  34.85
O  29.80   9.80  40.35
O  48.53  28.73  37.63
O  45.04  11.15   2.87
O  13.50  38.98  43.83
O   9.97   9.30  24.26
O  30.20  37.41  43.01
O  14.14  26.44  31.48
O  47.96  43.39  44.86
O  30.06  20.11  11.97
O  21.90  51.64  39.53
O  12.41  28.24  13.75
O  13.77   5.20  38.80
O  23.46  12.04  19.34
O   5.50  37.01  23.32
O  49.90  47.16  40.48
O  22.42  22.97  49.46
O   9.83  41.61  47.48
O  22.55  31.54   9.91
O  33.22   6.77  47.10
O   1.89  17.64  23.71
O  40.78  20.08  19.61
O  45.66  32.65  28.05
O  27.93  24.55  10.46
O  28.91   7.23  15.06
O  29.46  38.15  41.29
O   1.60  19.17  24.35
O  38.68  50.45  14.78
O  50.93  34.75  27.74
O  37.71  42.09  25.31
O  20.82  33.91   2.58
O   8.75  27.79  34.91
O  40.57  17.44  16.54
O  14.91  22.80  51.44
O  29.03  46.97  12.36
O  22.37  35.42   9.84
O   7.13  49.95   1.69
O   0.60   2.35  25.84
O  24.12  47.93  17.16
O  15.22  33.67  25.28
O  35.12  33.16  36.39
O  33.05   0.29  19.81
O  19.52  34.53  41.14
O  40.66  40.87  43.58
O  18.56  51.48   2.18
O  39.83  26.25  20.67
O  33.34  15.30  41.83
O  50.92  14.73   4.89
O  16.84  25.62   8.91
O  35.20  17.24   6.86
O  19.99  51.23   2.85
O   3.49  13.58   6.59
O  30.23  31.30  44.04
O  37.55  37.09  15.43
O  35.16   2.26  24.13
O  22.46  33.31  35.12
O  28.03  14.47   7.62
O  49.16  42.18  30.39
O  18.21  21.07   5.44
O  35.64   9.59  15.20
O  17.63  37.87  12.07
O  49.83  35.87  41.39
O  41.77  47.04  19.91
O  38.00   8.51  19.95
O  32.89  32.82  17.95
O  16.62   7.68   3.26
O  35.67   4.73  30.30
O  47.21  45.94  23.34
O   1.96  12.58  44.52
O  46.10  36.03  23.07
O  50.90   4.47  37.55
O  19.78  36.29  37.06
O  38.61  13.05  42.37
O  34.51  42.86  21.13
O   7.78  30.71  10.25
O  32.79  36.23  14.48
O  14.55  10.26   5.58
O  19.78  46.43  46.38
O  41.83  16.25  40.91
O  16.45  32.92  29.06
O   1.76  38.86  41.43
O   9.75  44.10  15.15
O  17.87   1.71   5.71
O   0.55  31.09  26.74
O   4.24  34.35  11.24
O  15.28  38.60  38.19
O  17.89  16.53  39.47
O   7.94  50.69  15.37
O  32.84  26.05  13.32
O   3.45  14.18  48.16
O  36.96  26.39  45.12
O  44.33  32.78  26.36
O  11.09  20.92   5.14
O  15.42  32.11  16.91
O  25.17  14.24  36.92
O  40.58  28.61  23.02
O   5.47   3.91  47.84
O  13.80  15.27   4.25
O   0.40   6.25  21.03
O  30.61  21.91   8.92
O  22.95  25.86  18.67
O  41.69  29.76  26.90
O  42.01  33.41  38.81
O  49.33  22.64  41.20
O  48.01   3.75  50.70
O  41.50   9.97  11.57
O  13.46  33.09  41.82
O  29.98  21.02  21.22
O  10.52  39.65  39.36
O   8.10  49.68  47.30
O  48.27   1.96  13.04
O  24.03  51.50  29.62
O  42.30   1.42  11.63
O  22.71  22.75   2.35
O  41.91  40.84  25.40
O  37.93   1.08  43.24
O  31.10  44.90  32.06
O   6.78  43.11  35.15
O  47.64  48.80  32.28
O  49.17  11.87   3.67
O  16.91   5.17  46.28
O  31.53   3.70  34.61
O  26.28  10.22  14.20
O  45.30  19.59  36.55
O  22.90   1.08   5.59
O  50.83  34.41  15.21
O   3.19   9.74  12.67
O  17.46  48.25   5.85
O  29.81  17.78  17.38
O  36.12   1.09  17.64
O  21.34  12.19   2.10
O  24.03   8.35  51.16
O   9.00  32.75  27.29
O  34.70  18.10  43.61
O  35.05  31.11  29.34
O   3.68  33.21  43.88
O  38.01   1.25  15.94
O   8.09  37.23  46.08
O  35.70   5.60  26.09
O  18.42  37.45  37.77
O  37.70   4.66  40.52
O  14.74  19.56  42.17
O   2.20  12.16  18.98
O  28.42  20.75  20.59
O  15.28  46.48  47.08
O  18.10  22.57  15.93
O  27.65  21.15  33.10
O  43.10  44.95  16.77
O   8.84  12.24   5.78
O  38.40  35.36  23.27
O  30.48   3.61   2.61
O  11.37   4.21  35.37
O  40.56  10.83  22.34
O  46.11   0.37  26.06
O  29.09  30.26  21.15
O  37.59  46.07  15.60
O  41.73  45.54  26.66
O  47.22  42.80  16.31
O  17.89  30.87  15.91
O  23.11  19.69  37.58
O  12.96   0.75  34.71
O  11.32  49.22   3.68
O  41.61   9.22  35.55
O  21.91  32.16   1.95
O  37.57   8.93  44.72
O  11.14   5.75   0.48
O  38.34  50.24  28.47
O  21.93   6.90   5.54
O  34.31  33.95   8.41
O  25.85  44.09  43.56
O  49.37  30.47  32.66
O  32.87  22.31  17.01
O  26.16  23.13  45.53
O  49.73   0.97  30.18
O  44.22  48.30  16.52
O  47.91  38.56  14.43
O  44.01  11.34  45.42
O  15.93  37.97  36.27
O  31.64  13.95  49.75
O  31.10   5.82  26.10
O  14.37  21.02  19.67
O   4.83   0.28  44.59
O  29.32  16.20  47.78
O   1.88  29.99  31.28
O  22.19  12.70   9.23
O  50.66  30.92  12.68
O  10.50  27.32   1.42
O  19.03  47.61  50.84
O  19.84   8.19  13.22
O  37.40  11.54  22.18
O  43.56  28.47  12.80
O  39.54  41.51  18.17
O   0.67  16.35   2.53
O  17.22   8.09  49.52
O  41.38  42.02  22.35
O  38.94  39.35   8.14
O  20.75   7.61  31.79
O   4.26   6.92  46.98
O  49.28  26.18  14.03
O  48.06  20.73  48.46
O  45.90  36.00  38.66
O  30.54  11.22  41.07
O  28.71  49.49  24.08
O  33.32  14.59  38.09
O  22.57  45.63  34.57
O  24.60  35.59  43.91
O  45.84  10.43  36.27
O  25.29   4.78  34.30
O  43.03  10.13  16.16
O  11.29  22.58  23.61
O  25.48  32.27   0.24
O  13.58  50.48  45.13
O  29.09  35.08   7.85
O  33.56   1.73  33.00
O  39.94  13.07  28.30
O  26.61  28.41  15.74
O  15.52   9.59  15.42
O   4.02  29.62   4.72
O  38.67  49.68   3.25
O   7.19  22.83  45.48
O  23.09  42.23  34.37
O  51.68   8.26  42.30
O   4.75   0.85  31.16
O  13.76  26.86  38.48
O   8.06  26.93  42.38
O   9.75   9.09  48.78
O  50.75  39.11  30.50
O  42.70   4.83   8.62
O  40.83  29.61  16.37
O  16.59  44.92  44.21
O  27.47  11.14  49.43
O   5.15  23.94  44.66
O  14.55   8.69  46.80
O  31.87  19.34  36.06
O  28.71  26.97  13.20
O  32.39  33.73   3.59
O   2.88  37.29  45.01
O  40.66  35.39  22.35
O  29.70   1.71   8.25
O   4.93  43.91  16.79
O   9.81  47.40  37.55
O  14.31  50.58  19.02
O   1.18   0.05  28.44
O  35.46  34.02  19.83
O   4.50  30.89  23.40
O   5.64   7.98  35.73
O   8.52   3.16  31.38
O  24.55  44.17  29.72
O  38.46  19.06  42.09
O  15.73   5.64  24.93
O  18.83  21.15  40.32
O  41.36   9.64  19.16
O  26.67   4.56  18.37
O  39.27  26.73  14.32
O   8.23  17.27  27.96
O  18.15  17.14  31.23
O  18.58  18.17   9.02
O   7.01  12.75   2.85
O  30.38   3.51  21.59
O  13.19  24.27  11.84
O  18.74  27.86  48.92
O  19.26   4.37   3.23
O  24.89  49.33  40.68
O   9.72  25.29   5.61
O   1.93  36.41  34.37
O  45.47   3.48  30.52
O  37.03  14.56   2.37
O  40.38  48.26  33.09
O  49.17  34.74  19.63
O  18.95  33.49  13.21
O  15.03  14.86  39.68
O  36.29  41.94   3.65
O  22.51  32.59  19.50
O  29.68  42.31  37.42
O  16.41  42.84  48.88
  1000
  Step: 2000
H   9.32   1.01  23.96
H  37.50  21.73  25.11
H   0.29  26.35  48.00
H  46.26  38.17   8.75
H  42.84  40.76  12.33
H  34.63   1.69   8.28
H  16.36   8.17  39.26
H  44.09  17.38  18.15
H   4.50   3.38  36.54
H  30.51   2.84  25.63
H  19.26  46.03  36.98
H  33.08  26.38  47.13
H  51.03  17.48  12.41
H  41.20   3.29  18.86
H  31.19  47.21  46.47
H  15.01  40.87  46.83
H  41.00  29.06  31.86
H  18.70   8.73  22.56
H  37.90   3.25   1.07
H  39.86  15.52  36.27
H  36.41  47.61  24.48
H  18.54  41.72  39.54
H  31.62  39.23  33.22
H  48.76  17.02  34.70
H  22.26  12.51  12.20
H  27.40  10.40  33.39
H   1.00  39.29  23.42
H  36.04  38.94  23.09
H  19.02   8.78  43.93
H  43.09  37.98  45.27
H  33.52  36.00   9.98
H  39.70  17.28  22.65
H   6.90  48.02  30.36
H  26.92  13.99  12.94
H  43.70  15.63  22.67
H   3.29  17.18   2.55
H  32.08   8.48   4.79
H  32.34  13.93  33.97
H  32.43  42.71  27.61
H  47.39  24.99  15.59
H   8.82  37.42  22.33
H  24.40  25.05  30.16
H  23.16  28.48  50.23
H  48.23  43.48   6.57
H  31.27  18.39  48.26
H  16.23  48.14  12.33
H  21.74  49.65  30.80
H  49.01  29.76   5.95
H  36.88  26.98  26.14
H   7.06   7.50  48.08
H  49.45  49.96  18.51
H   0.35  29.59  38.71
H  35.41   2.43  13.15
H  10.29  47.47  34.21
H   3.29  12.73   0.74
H  13.17  28.06  28.49
H  47.12  30.64  17.50
H   5.13  24.28  12.22
H  39.53   5.03  28.59
H  12.73   0.56  42.91
H   0.92  48.55  37.42
H  47.15  42.13   9.87
H   9.10  49.73  15.05
H  42.80  10.10  12.92
H  35.97   1.89  36.10
H  45.48  16.57  15.45
H   1.43  21.86   3.38
H  29.72  35.58  29.39
H  31.23  31.02  46.69
H  31.38  43.71  18.06
H   6.84   9.32  40.15
H  11.88  39.96  46.70
H  28.16   7.41  32.25
H  19.63  46.99  11.57
H  11.75  27.29  24.01
H   8.04  18.81  31.20
H  24.34   3.09  21.48
H  21.51  23.15   1.23
H  10.06  49.99  44.19
H  48.66  39.25  22.45
H  43.58  17.26  30.61
H  27.03  21.46  13.81
H  17.09  33.25  14.69
H  33.05  20.61  31.05
H  42.85  28.23   0.95
H  38.36  25.97  40.29
H  27.45  15.47  39.82
H   8.97  14.39  25.04
H  44.48   5.96  17.52
H  20.69  35.50   4.19
H  41.38  31.00  24.59
H  19.70  16.27  46.06
H  37.69  11.35  50.03
H  34.50  39.55  42.57
H  15.64  10.81   3.75
H  19.46  29.09  45.13
H   2.27   6.14  32.23
H   5.69  48.41  33.77
H   0.98  33.62  18.39
H  12.45  24.80  39.47
H  27.75   4.70   3.40
H  32.76  41.16  22.25
H  22.41  34.30   7.09
H  13.67  47.25  48.92
H   1.99   0.16  39.72
H  23.37  39.44  33.26
H  24.74  37.80  29.29
H   1.48  29.05  45.45
H  38.89  33.00  34.33
H  42.24  15.07  20.39
H  28.52  38.67  15.45
H   8.32  16.50  22.52
H   7.85  32.15  45.13
H  17.70  49.47  21.70
H  24.49  51.14  36.12
H  26.15  39.03  24.48
H  34.60  11.11   5.71
H  31.42  28.47  24.26
H   6.08  48.34   5.78
H  51.02  18.04  17.86
H  48.62  49.69  36.24
H  49.41   9.05  44.31
H  31.98  15.29  30.85
H   6.62  44.08  30.87
H   5.54  11.36  15.09
H  20.43  15.02  13.53
H  28.52   7.60  38.96
H  26.01  16.42  27.41
H   6.25  47.01   9.59
H  26.57  50.62   4.34
H  36.15  50.44  51.51
H  18.14  30.46  47.84
H  32.30  45.15  36.08
H   1.91  17.87  46.23
H  22.65  21.17  14.46
H   6.75  33.91  16.03
H  48.63   3.39  44.42
H   6.69  42.33  22.38
H  40.15  25.29   7.85
H   7.15  48.86  39.52
H  30.85  10.84  20.79
H  30.79  31.57   5.58
H  34.25  37.55   0.86
H  44.34  29.83  41.98
H  23.37   4.95  14.65
H   1.95  19.71  29.99
H  42.78   9.28  39.00
H  25.80  31.10  12.49
H  31.98  23.39  26.40
H  47.46   1.40  31.96
H  19.48   6.98  18.32
H  31.57  24.01  19.21
H  39.83   2.76  45.83
H  38.66  21.19  36.66
H  48.58  33.87  34.57
H  34.99  45.84  46.23
H  15.66   4.50  15.11
H  18.65  14.14  25.01
H  18.79  24.90   0.21
H  39.61   5.37  16.42
H  28.49  39.79  44.58
H   1.17  39.67   4.58
H   7.68   4.93  23.32
H  41.99   3.57  11.25
H  41.47  42.59  10.35
H   2.91  33.83  41.07
H   2.57  27.03   7.34
H  31.08   5.82   6.82
H  27.96  48.98   1.48
H   5.14  10.45  42.14
H  12.18  15.96  24.24
H  43.13  11.77  19.52
H  24.57  25.84  23.06
H  40.62  10.82  25.18
H   6.78  45.07  21.98
H   2.31  36.36  11.15
H  48.14  11.43  31.95
H  39.58   5.34   9.52
H  22.82  14.68  16.59
H  11.91  18.34   1.02
H  41.52  44.97  41.85
H   6.58  13.13  45.40
H  46.65   9.05  20.31
H  17.29  29.33  21.47
H  41.56  21.24  51.59
H  38.10   4.21  35.28
H  23.70  39.41   0.18
H  24.82  45.77  26.94
H  18.55  49.41  42.99
H  44.93  10.00  25.10
H  26.34  40.25  18.76
H  33.93  12.71  20.09
H  45.99  38.12  18.77
H  14.98  31.19  23.01
H  15.67  17.57  46.32
H  12.13  41.45  44.76
H   9.77  22.96  36.77
H  21.31   5.56  39.70
H  25.17   9.54   2.65
H  27.34  18.01  42.77
H   8.15   0.85  46.95
H  19.38  42.78  29.98
H  45.56  48.53   4.36
H  14.43   9.47  49.48
H  35.93  47.88  50.96
H  40.95  45.22  48.66
H  31.52  42.40  50.40
H  24.39  11.21  34.42
H   2.17  37.72  14.20
H  41.63   1.24  16.64
H  13.59  35.75  45.90
H  24.10  39.97  21.94
H  24.02  17.88   9.56
H  46.06  31.16  13.87
H  27.86  20.94   1.91
H  36.04  44.89  31.49
H   9.44  22.38  11.53
H   8.81  15.22  46.34
H  43.60  41.05  48.00
H   8.87  12.13   3.30
H   1.56  44.90  51.45
H  29.25  44.94  14.82
H  12.65  42.48   1.28
H  47.90  17.95   1.73
H   8.16   2.25  40.22
H   2.87   2.76  31.81
H  10.86  17.30  40.67
H  21.66  40.11  13.21
H   3.74   4.73  42.58
H   8.89   7.12   9.30
H  26.98  35.60  25.56
H  32.11  25.72  38.50
H  31.22   9.10  17.38
H  51.38  23.21  35.04
H   7.98  38.37  35.95
H   8.29  48.69  20.39
H  17.90  35.06  47.60
H  46.15  28.57   4.56
H  25.13  32.11  43.27
H  10.46  24.09  33.16
H  35.60   2.40  45.31
H   3.83  44.49  41.67
H  31.69  27.99  18.08
H  20.10  47.67  34.02
H  26.95  18.97   0.01
H  48.40  47.80  47.88
H  41.02  10.69  47.88
H  47.22  38.05  43.09
H  41.39  29.93  36.03
H   6.57  22.29  39.49
H   5.09  19.44  30.67
H  26.58  51.27  11.61
H  39.57  16.95  45.10
H  46.90  48.26  15.20
H  44.66  24.74  34.68
H   6.41  23.45  51.23
H  48.92  22.70  15.77
H  49.85  26.54  50.40
H   1.82  30.73  14.58
H  23.47  11.91  38.07
H  35.81   1.09   4.55
H  29.64  48.58  34.45
H  39.05   1.89  10.63
H  17.34  50.13  34.60
H  34.58  42.58  37.36
H   3.47  44.67  35.74
H  11.15  30.77  23.37
H  51.07  40.11  16.48
H  16.38  30.96  50.29
H  21.46  22.39  11.67
H   5.85  37.56   9.46
H  27.26   8.60  41.05
H  10.88  39.87  22.99
H  38.75  18.57  49.91
H  26.00  21.01  21.46
H  39.36   5.95  32.26
H   9.34   0.57  12.04
H  42.12   2.82  26.86
H   6.35  20.07  20.82
H  31.70   0.21  14.32
H  39.38  39.25  40.84
H  29.84  39.01  22.49
H  16.31  41.99  20.53
H   5.14   0.36   7.69
H  37.29  13.53  45.04
H  32.28  48.82  31.21
H  39.66  25.93  44.92
H  45.14   3.74  20.57
H  47.09   9.71  28.74
H   6.91  19.76  17.09
H  26.80  19.38  47.52
H  16.93   8.16   6.19
H  21.27  50.94  46.42
H  27.68  26.87  32.12
H  41.04   0.34  47.51
H  15.46  37.42  48.31
H  31.03  27.04  16.98
H  12.15  38.00  40.69
H  33.62  15.02  22.59
H  12.45  48.82  15.81
H  19.29  32.71  36.30
H  22.68   6.39  25.13