  600
  Step: 1000
H  32.50   5.93  77.07
H 120.47  68.76  83.82
H   7.33  78.51 158.23
H 146.16 122.29  15.93
H 152.09 145.83  25.15
H 111.48   5.71  19.33
H  54.63  26.67 132.16
H 136.47  56.92  55.81
H  15.90  16.15 119.27
H 101.92   9.46  81.57
H  69.66 146.31 119.77
H 102.35  93.91 161.35
H 169.15  60.40  41.51
H 135.47  12.65  62.04
H  11.90  54.29  11.96
H  49.36 136.97 150.84
H 140.30  98.32 107.75
H  61.45  28.70  74.16
H 124.58  10.69   3.52
H 134.71  53.55 121.76
H 124.34 161.76  68.28
H  61.78 134.98 131.27
H 107.48 138.75 109.64
H 162.76  56.76 125.50
H 162.03  54.53 103.79
H  62.16  78.46  12.75
H   3.29 129.14  76.97
H 106.96 123.93  73.01
H  65.94  29.68 136.42
H 141.22 125.79 144.28
H 107.69 118.34  35.08
H 133.61  56.86  73.94
H  53.57  96.68 111.60
H  99.18  60.53  33.25
H 141.94  54.02  72.70
H  13.57  51.33  16.62
H  56.64 122.42 165.52
H 106.30  45.54 112.78
H 106.59 140.36  90.73
H 147.08  71.50  49.39
H  86.71 157.12 130.48
H  83.97  84.57 110.28
H  78.53  91.86 163.80
H 160.39 146.32  22.27
H  94.91  63.13 153.05
H  53.33 158.23  40.52
H  71.47 163.19 101.23
H 159.40  91.02  37.75
H 119.08  86.69  86.53
H  23.89  28.59 157.23
H 162.53 164.21  60.82
H   7.80  94.17 125.17
H 110.78   9.00  39.82
H 118.45   8.46 143.19
H 168.14  42.13   9.20
H 164.72 128.66  74.86
H  75.88 157.47  58.06
H  12.00 107.08  53.64
H 117.09 162.31  62.79
H  41.99   9.00 141.38
H  13.32 161.87 120.05
H 152.83 139.34  31.61
H  35.05 160.74  50.83
H 134.40  29.03  50.84
H 110.52  41.94 129.10
H 154.19  60.05  53.21
H   0.36  67.89  10.84
H  94.16 119.03  96.10
H 102.11 107.43 153.74
H  86.63 146.61  61.39
H  23.91  37.72 134.86
H  38.28 134.12 152.34
H  92.55  24.35 105.99
H  64.52 154.44  38.02
H  41.60  80.90  86.17
H  31.36  63.25 110.84
H  79.99  10.15  70.60
H  72.53  77.97   5.21
H  48.07 160.77 148.27
H 156.66 128.90  77.49
H 159.38  51.11 100.85
H  97.89  74.73  43.91
H  57.30 114.92  43.95
H  58.85  60.20  55.22
H 140.85  92.78   3.12
H 123.47  87.01 132.61
H  84.08  52.84 142.68
H  28.80  44.66  79.64
H 141.17  19.73  53.87
H  85.16 117.90  15.98
H 128.54  97.60  85.39
H  67.77  58.84 150.20
H 169.85  31.78  34.53
H 113.40 129.98 139.90
H  51.42  35.55  12.34
H  64.05  95.23 147.18
H   6.17  18.14 110.20
H 114.12  21.10  16.38
H   3.97 108.47  47.04
H  39.41 111.49  20.71
H  93.60  17.28  12.97
H 114.25 134.93  77.00
H  72.28 120.02  10.17
H  47.31 153.90 161.32
H   6.53   0.52 130.54
H  76.74 130.02 109.77
H  76.15 120.70 102.77
H   2.44  75.48 143.38
H 125.54 113.33 105.09
H 142.82  44.55  66.85
H 102.08 137.04  54.01
H  29.50  44.21  72.69
H  16.02 107.24 152.24
H  55.32 162.66  69.13
H  89.95 164.99 124.91
H  87.47 129.92  81.88
H 122.67  37.80  13.07
H  99.87  91.28  76.52
H  19.97 158.87  19.00
H 164.73  47.84  47.04
H 160.97 167.00 120.48
H 162.39  29.75 145.63
H 106.73  50.69 103.33
H  19.54 133.03 108.15
H  17.81  37.36  51.73
H  80.53  39.21  50.59
H  92.85  24.50 125.92
H  72.67  66.31  97.32
H  27.15 153.48  18.50
H  93.01 164.04  23.66
H 114.94 166.83 169.88
H  59.28 106.08 163.11
H 106.17 148.38 118.59
H   2.11  56.51 153.73
H  76.34  72.84  49.96
H  30.43 114.90  67.97
H 149.06   5.61 148.37
H  15.69 145.94  73.05
H 125.83  76.65  26.95
H 161.88 106.61  34.40
H  97.52  35.08  67.97
H 102.55 101.40  11.47
H  33.38  78.57  87.53
H 146.06  95.78 136.99
H  66.81  32.08  46.05
H   1.30  65.15 106.51
H 143.18  36.88 122.57
H 126.09 127.11 164.32
H  98.58  75.41  91.26
H 167.47 167.52  84.98
H  64.02  22.95  60.23
H 108.24  87.02  64.73
H 129.78   6.79 149.25
H 115.45  71.31 117.59
H 161.81 109.50 112.05
H 117.27 154.39 149.25
H  51.11   1.77  47.42
H  63.31  46.83  80.43
H 156.62  32.48  67.29
H 143.30  22.93  59.28
H  94.24 131.02 150.66
H  43.52 161.90  73.92
H  23.58  27.79  75.05
H 136.14  13.06  43.50
H 136.30 139.97  34.00
H  10.65 112.69 137.79
H   8.81  88.56  22.21
H 102.15  19.11  22.40
H  88.03 162.39   4.92
H  16.90  34.33 138.50
H  39.69  40.91  69.74
H 148.25  48.80  82.21
H  80.74  84.93  75.80
H 134.50  30.69  85.18
H  20.44 148.18  75.16
H 167.27 111.00  31.86
H 157.03  48.63 109.41
H 130.08  17.56  31.30
H  74.82  64.17  54.78
H  50.82  64.80 166.39
H  77.41  76.62  39.84
H  32.24  43.76 150.56
H 151.27  23.51  66.34
H  98.67  94.09  34.24
H   8.83 135.47  20.84
H  67.73 127.67 114.86
H  69.06 139.90 167.84
H  79.43 147.43  90.25
H  69.58 167.19 132.90
H  25.86  89.64  63.86
H  84.24 128.47  57.37
H 102.19  40.50  75.34
H 151.16 125.27  61.69
H  47.89 102.51  79.19
H 167.88  50.33 156.54
H  38.49 137.03 147.02
H  34.15  76.32 121.94
H  69.95  13.66 127.97
H  82.73  31.36   8.72
H  84.82  46.73 137.55
H  26.96   1.81 153.31
H  71.01 145.12  96.95
H 148.01 158.70  12.78
H  46.34  30.83 162.19
H 118.99 149.81 167.41
H 131.13 149.45 160.21
H 105.49 139.14 163.97
H  80.15  36.84 113.12
H  11.34  51.48  64.68
H 140.57 169.78  52.17
H  53.62 111.19 147.57
H  80.61 145.34  71.01
H  85.41  54.59  33.34
H 152.44 105.40  46.04
H  90.94  71.81   7.70
H 123.65 147.72 103.14
H  25.11  71.31  34.61
H  26.57  48.85 150.78
H 144.77 134.85 154.83
H  21.63  38.03   8.43
H 166.81 113.04  72.62
H  96.76 143.40  52.25
H  39.97 139.50   3.38
H 153.87  60.05   7.59
H  36.63  12.06 142.42
H   4.76   9.24 108.37
H  35.70  56.88 133.67
H  72.32 124.00  47.91
H  22.28  11.56 142.53
H  20.64  15.05  24.30
H  88.66 117.02  84.00
H 105.54  84.52 126.54
H 104.70  32.15  56.88
H 167.43  76.03 111.86
H  26.97 114.95 117.15
H  28.12 157.82  67.07
H  59.33 114.98 158.01
H 144.02  92.77   8.46
H  82.29 105.01 142.96
H  34.37  79.17 108.99
H 114.27  11.39 151.34
H  15.64 144.96 141.81
H 104.15  91.98  59.43
H  66.07 156.67 111.82
H  77.85  58.98 164.40
H 159.08 157.09 157.36
H  58.71 141.72 117.70
H 155.20 125.05 141.62
H 132.33  97.84 116.90
H  13.20  67.94 138.04
H  15.80  56.12 106.47
H  78.04  14.14  28.66
H 110.94  96.42 100.02
H 153.68 158.97  51.94
H 152.43  90.21 107.46
H  18.98  70.19 164.04
H 154.11  72.22  43.91
H 166.44  82.91 158.66
H   6.91  98.79  44.63
H 167.36  81.74 163.27
H  80.25  34.87 119.11
H 148.87 129.16  42.52
H 132.30 132.21  78.26
H 126.56   9.80  35.44
H  67.20 160.14 115.29
H 109.94 138.51 121.80
H  10.70 149.46 130.86
H  35.36 104.56  77.79
H   4.65 130.10  59.22
H 104.16 139.92 160.20
H  90.51  76.33 169.80
H  20.56 128.91  32.09
H  91.08  29.59 138.33
H  37.12 129.40  73.18
H 130.45  58.12 165.41
H  85.46  69.05  70.53
H  50.64 110.27  30.26
H  26.20 163.83  35.68
H 137.79  14.11 101.06
H  20.65  62.47  56.60
H 104.20   0.69  47.06
H 126.54 126.31 134.76
H 102.24 129.29  70.87
H  51.90 140.91  69.06
H  22.53 162.39  21.86
H 129.67  34.57 146.58
H 105.66 162.59 100.31
H 143.17  84.28 151.33
H  70.80 156.57 107.72
H 155.62   6.66  64.89
H 153.76  48.37  89.87
H  69.52   2.91   5.34
H  87.38  67.28 149.83
H  56.04  27.41  21.89
H  72.03   0.66 152.16
H  90.99  88.31 105.58
H 126.33   9.53 159.49
H 146.33  74.33  59.45
H  90.41  90.22  57.15
H  20.23 120.04 149.26
O 110.14  51.25  75.89
O  30.43 159.09  43.23
O  58.06 110.35 128.23
O  76.85  21.34  69.71
O 138.41  45.86  71.39
O  46.48  62.80  57.05
O  78.03 139.56 138.00
O  27.83  43.66  58.12
O 115.67 125.06 125.06
O  38.81  41.48 168.73
O  95.99 129.98  33.72
O 105.22  49.97  82.48
O  75.43 146.07  61.17
O 125.60  52.43 102.92
O 145.56  39.66  71.03
O 166.08 140.60 150.18
O 103.30  60.66  26.62
O 147.12  19.52 158.67
O 157.97 161.41 132.52
O 111.81  64.31 140.01
O  98.74  87.03  22.97
O  15.90 114.68  24.61
O 119.37  73.94  21.84
O  93.41 137.44 168.65
O  42.16  66.56  82.36
O  82.27  47.13  58.80
O  14.64  97.36   2.95
O  17.39 125.27  88.69
O  53.11  58.56   0.48
O  18.44 100.07  91.30
O 160.11  35.63   5.21
O 150.61  49.00  69.31
O  20.35  36.52  41.94
O 118.36  26.31  34.45
O  68.62  68.50   9.35
O 169.79 143.74 129.74
O 126.36  68.72 113.25
O 142.80 122.16 150.17
O 130.55 125.65 153.00
O 137.79  55.07  85.10
O  15.99  71.24 108.80
O  36.82  98.06  56.66
O  40.81  66.06 103.85
O  78.95  75.67 131.79
O 106.77 100.99  22.77
O   0.40  61.67  20.74
O 110.20 141.48 125.89
O  75.49 142.24 121.55
O  86.29 101.45  28.41
O   3.55 152.41 165.88
O  90.16 100.85 126.32
O  16.88 122.57 135.14
O  31.81  92.56 127.49
O 159.57  73.55  22.30
O 123.75 104.40  83.78
O  64.73   5.80 154.47
O  64.91   7.66  17.58
O 100.30   6.05 129.89
O 122.05   3.11 109.16
O  45.74  49.68 145.06
O  12.15  70.89 162.31
O  14.73 103.26  43.83
O  40.91  60.27 123.02
O  72.84 125.14 156.36
O 157.97  92.62  45.62
O 107.38  15.71  58.19
O  51.51 162.05  95.23
O  66.70  49.39  91.89
O  93.49 144.66  87.00
O 167.29   7.79 103.34
O  72.13  51.68  82.87
O   0.79  70.70 164.62
O  90.47  66.64  12.30
O  13.75 147.97  21.65
O  49.09  62.87  11.97
O  34.80  38.24  72.61
O  24.14 101.03  77.54
O 117.16  32.55  41.56
O  79.39  66.25  54.50
O  23.70  84.70  63.27
O  62.81 136.66  10.64
O  32.42 165.84  54.82
O  11.58  39.57  16.52
O 163.82  50.31  28.53
O  14.37 139.54  98.27
O 153.07  66.03  71.76
O  91.32 108.25  89.83
O  43.17  94.83 161.29
O  96.02  76.68  11.71
O   1.25   3.79   0.90
O  56.85 156.82  58.66
O 154.68 146.88  62.51
O  95.38  63.97 147.91
O 117.35 116.86 103.59
O 103.16 117.77 149.30
O  46.75  30.64  57.27
O 128.54 145.85  69.89
O  93.97 135.72 130.23
O 131.85  85.76 112.57
O  22.86  91.48   3.86
O  75.93  21.48 146.65
O 141.34  97.30 158.76
O  22.07 120.65  68.72
O 120.58 130.93 158.63
O 160.58  92.51 154.07
O  72.33 122.89  90.07
O 146.63  26.31 129.03
O 144.36 122.54  27.79
O 110.39 142.87  30.64
O 168.18  56.64  29.52
O 113.68   2.71 102.20
O  74.62 159.98  49.45
O  82.18   1.98  73.35
O 108.40  29.73  58.03
O 124.36  69.89  36.48
O  28.41   4.58 130.42
O  81.30  42.10  15.94
O 122.15 146.57  58.20
O  75.29 163.84  46.27
O  66.60  68.69 104.36
O  65.66 157.81 132.66
O  47.45  14.18 152.53
O 125.10  59.16 114.18
O  30.32  59.00 120.72
O  93.56 105.65  93.28
O  72.75  82.81 117.95
O 166.67  40.30 161.19
O  51.66  95.68  47.49
O 164.48 118.94  53.83
O  65.05 122.92  15.96
O  75.07  74.23 131.81
O  38.45  24.35 113.26
O  57.49  40.68  32.48
O  14.37  69.57 113.39
O 138.51  54.16   9.79
O  37.47  21.26  68.63
O   3.62 127.54  93.23
O 131.90 155.33 150.99
O  49.94  20.37  63.08
O 145.53 150.66 101.25
O  56.74  97.71  39.92
O  20.28   4.57   9.15
O 153.97  94.58  68.53
O 141.39 103.12  13.68
O 120.52  76.26 107.61
O 166.44  10.97 160.54
O  28.36  12.12  56.64
O 135.91  49.50   9.91
O 129.17 105.89 127.03
O 128.28 160.05  55.76
O 142.08  72.72  80.87
O   9.20 151.94 106.91
O  66.15  12.04  43.46
O  60.27 108.47 137.16
O  61.51  48.59  10.83
O 143.54  37.45 138.50
O 116.41  59.36  37.31
O  21.49  34.08 131.91
O 165.06 110.58  43.26
O 138.05  99.83 141.13
O  93.95 118.74  27.64
O  30.95  13.04 150.00
O  86.71  22.14 153.43
O  79.62  28.10  19.13
O  14.01  95.00  62.85
O 147.36 124.31  94.25
O  57.12 128.65 142.66
O  79.07 116.50 138.86
O  65.61  89.91  34.38
O  75.33  46.75  21.53
O 137.13 104.30 106.42
O 149.65 138.95  69.66
O  48.21  89.99 148.94
O 161.69 166.28  67.80
O 100.18  21.75  73.38
O 130.31  28.87  22.31
O  58.33  29.80  30.41
O  15.51  65.56  26.37
O 156.36   3.62   4.89
O  47.23 149.06 145.81
O  45.42  10.11 124.43
O  43.49 153.65  68.28
O  81.52  29.20 141.16
O 153.93 136.11 130.11
O  69.74  13.89   5.29
O  91.23 136.84  24.80
O  66.01  71.14 110.90
O  10.01   7.46  32.24
O  96.18  73.15 168.22
O  88.96 151.24  31.68
O   5.43 146.19  74.13
O  16.76  97.19  96.90
O  45.79 150.27 140.82
O  79.32  40.67  53.18
O 146.91  70.19 104.73
O  25.11 102.08 169.15
O 154.41  64.06  43.19
O  98.43  95.76 129.11
O  13.91 121.01 168.06
O  28.87  69.82  82.33
O 148.34  23.89   3.34
O  54.51 146.01  39.36
O  27.90 121.78   6.08
O 117.92  78.68  75.80
O 138.76  67.81  79.56
O  44.09 140.10 133.46
O 124.40   2.67  75.29
O  81.65  87.72 168.14
O  28.45 107.82 128.49
O  66.68  44.56  11.43
O 126.61  55.86  73.12
O  55.28  53.61 160.69
O 112.69 150.49  72.22
O 135.39 145.38  27.82
O 163.61  18.07  98.99
O  68.89 125.42  44.80
O 106.63 116.95  10.85
O 101.65  90.54  62.03
O  23.46  22.37 124.76
O  78.48 151.02  48.34
O 136.12  30.00  46.46
O  13.77 142.24 149.88
O  74.35  62.51 140.76
O  77.76  28.20  93.88
O  93.03 130.69 128.57
O 169.71  38.56 161.81
O  52.33 122.96  84.00
O  80.84   7.20  48.90
O  97.16  20.53  65.64
O  45.62  92.95  31.46
O 121.20  58.47  11.61
O 164.89 126.22 128.25
O 139.06  25.72  23.01
O   7.70  43.50 125.95
O  23.18 162.27  80.35
O 142.22  98.53  92.56
O  65.45 108.63  73.64
O 140.91  46.63  18.03
O 102.23  30.96  35.02
O 168.25 130.14  53.77
O  70.36  82.39  46.37
O  53.18  42.58  38.15
O  30.36 149.89 134.04
O 167.14 106.16  29.64
O  84.15 154.97 103.32
O 135.43  40.72  23.43
O 163.84  84.78 148.94
O  87.86  48.34 118.20
O  79.64  25.26 133.08
O 169.38 144.01 114.10
O 131.42 137.89   0.49
O 153.79   4.59   9.29
O 112.45  23.30 128.25
O 167.71 123.44  22.87
O  47.04 131.66 106.68
O  82.68  49.71  30.36
O  56.95  62.61  51.09
O 134.42  33.51  41.39
O  88.24  69.52  75.19
O   7.24  80.22 132.93
O 154.50 129.76  60.75
O 105.99  60.90  80.59
O 161.34  89.66 111.49
O  79.81 108.60 100.82
O   5.08  41.28 121.03
O  89.18 133.88  28.34
O   9.07 113.77 101.10
O 105.03 135.04  41.12
O 160.54 152.64 156.21
O 136.23  44.25 144.92
O 162.96 162.08 150.69
O 130.04  42.05  31.08
O  94.18 155.62  86.63
O  89.05 120.21  20.70
O  77.58  57.09  48.89
O  40.10 138.24 158.86
O 129.39 161.75  88.38
O  57.98 161.40  48.81
O  14.62  98.30 153.00
O  79.91  64.53 108.19
O  69.58  99.24  55.34
O  23.21 100.36 124.45
O 123.48  98.11  16.68
O 125.30  40.72   4.24
O  79.26 130.09  61.23
O  69.62 119.72  87.86
O  90.13 161.07  58.59
O 105.77  25.78 131.47
O  62.36 118.42 103.42
O 153.77  21.90  16.63
O 161.16  84.02 136.85
O  80.30   8.51 130.01
O  60.68  85.69 106.05
O 108.47 130.84 101.60
O  36.07 126.70  16.37
O 147.74 166.57 136.32
O  75.74  64.34 151.88
O   3.50 152.67  46.76
O  62.01  50.76  65.45
O 122.92 169.37  69.08
  600
  Step: 2000
H  35.57   4.97  79.08
H 116.59  66.95  86.60
H  10.96  81.98 157.82
H 146.16 122.29  15.93
H 152.09 145.83  25.15
H 111.48   5.71  19.33
H  54.63  26.67 132.16
H 134.27  58.22  52.25
H  11.09  15.28 123.86
H 103.67   7.79  81.10
H  71.13 144.58 118.55
H  98.44  93.33 165.51
H   0.77  53.06  35.00
H 139.21  15.39  66.45
H  11.90  54.29  11.96
H  51.52 134.50 149.70
H 140.30  98.32 107.75
H  62.14  29.48  83.47
H 125.41   7.18   3.81
H 134.71  53.55 121.76
H 123.53 164.92  68.31
H  57.34 146.01 133.45
H 107.48 138.75 109.64
H 162.76  56.76 125.50
H 162.03  54.53 103.79
H  62.16  78.46  12.75
H   1.64 125.89  78.93
H 103.59 123.11  74.74
H  66.52  33.26 135.33
H 140.97 128.92 142.22
H 109.34 117.80  29.77
H 131.89  57.33  70.48
H  55.92  96.75 110.92
H  96.31  61.54  36.05
H 141.94  54.02  72.70
H  14.01  49.24  13.71
H  57.12 124.90 164.66
H 107.78  42.65 115.83
H 107.93 143.91  89.06
H 147.08  71.50  49.39
H  84.73 158.72 127.36
H  80.28  85.87 109.60
H  82.71  92.17 159.54
H 163.91 145.20  21.85
H  93.97  61.76 156.97
H  56.18 158.45  42.66
H  73.91 166.34 106.34
H 155.18  94.32  37.68
H 117.51  85.48  88.15
H  23.89  28.59 157.23
H 160.97 164.02  63.67
H   9.48  96.77 123.06
H 103.90   7.11  37.31
H 120.72   7.19 143.20
H 168.14  42.13   9.20
H 163.19 126.07  75.14
H  72.44 156.54  58.05
H  12.00 107.08  53.64
H 118.89 164.52  65.24
H  41.99   9.00 141.38
H  17.65 160.76 117.94
H 145.07 134.84  40.23
H  37.03 159.79  49.22
H 133.31  28.46  53.43
H 108.29  45.23 126.48
H 154.19  60.05  53.21
H   0.36  67.89  10.84
H  95.76 118.33  99.07
H 102.11 107.43 153.74
H  86.63 146.61  61.39
H  23.91  37.72 134.86
H  38.51 133.05 155.36
H  96.13  22.96 106.42
H  64.57 154.87  40.87
H  41.73  78.64  85.76
H  31.36  63.25 110.84
H  80.95   6.41  70.86
H  76.18  77.33   5.52
H  48.54 160.91 148.63
H 157.15 130.56  76.32
H 158.41  47.50 101.17
H  92.72  71.43  43.26
H  54.67 114.30  43.88
H  58.85  60.20  55.22
H 139.77  87.58   3.38
H 120.35  84.74 131.44
H  84.08  52.84 142.68
H  28.14  41.47  78.34
H 139.79  18.96  51.10
H  87.65 118.21  13.94
H 128.72 101.17  84.39
H  68.07  61.48 149.34
H   0.04  32.82  36.86
H 113.02 131.79 136.48
H  51.42  35.55  12.34
H  64.05  95.23 147.18
H   6.17  18.14 110.20
H 114.85  23.33  13.92
H   3.97 109.58  44.37
H  39.41 111.49  20.71
H  91.30  18.83  13.48
H 113.84 131.33  78.22
H  71.52 119.34   4.95
H  48.05 151.12 161.28
H   3.07   1.44 129.88
H  76.74 130.02 109.77
H  75.25 121.38 104.85
H   2.44  75.48 143.38
H 125.54 113.33 105.09
H 142.82  44.55  66.85
H  99.02 138.21  55.03
H  33.14  43.65  71.20
H  16.02 107.24 152.24
H  55.32 162.66  69.13
H  93.01 166.49 122.81
H  91.42 129.15  82.44
H 122.67  37.80  13.07
H  95.97  89.98  78.06
H  19.97 158.87  19.00
H 163.68  44.49  46.31
H 160.97 167.00 120.48
H 160.15  32.42 144.52
H 108.03  50.64 107.19
H  21.06 134.72 105.11
H  19.92  36.66  54.28
H  81.02  35.83  46.44
H  92.85  24.50 125.92
H  72.67  66.31  97.32
H  29.66 152.86  20.29
H  89.36 163.87  22.32
H 114.94 166.83 169.88
H  61.24 105.04 166.17
H 106.17 148.38 118.59
H   2.26  54.22 151.56
H  74.37  75.62  50.24
H  26.07 117.33  70.70
H 153.51   6.86 146.81
H  17.00 148.39  73.58
H 125.83  76.65  26.95
H 163.09 104.74  33.51
H  97.25  39.53  67.68
H  99.46  98.53  15.19
H  33.38  78.57  87.53
H 146.06  95.78 136.99
H  68.17  32.04  43.28
H 168.15  63.17 107.40
H 141.86  35.61 126.08
H 125.99 124.77 161.04
H 101.05  76.57  90.14
H 167.23 166.37  84.21
H  64.18  20.43  61.30
H 105.11  89.24  67.98
H 129.78   6.79 149.25
H 114.97  69.45 114.46
H 160.11 103.94 112.22
H 120.62 156.52 148.83
H  51.11   1.77  47.42
H  63.31  46.83  80.43
H 152.09  28.65  62.51
H 145.10  20.86  52.74
H  94.24 131.02 150.66
H  43.52 161.90  73.92
H  23.58  27.79  75.05
H 136.14  13.06  43.50
H 136.07 143.22  32.85
H   7.03 111.88 137.21
H  11.86  87.47  24.05
H 106.27  19.85  26.39
H  84.67 164.78   4.91
H  18.90  30.89 137.31
H  39.69  40.91  69.74
H 147.51  52.05  80.94
H  80.74  84.93  75.80
H 134.67  30.15  79.90
H  17.45 143.18  76.40
H 167.27 111.00  31.86
H 153.86  51.27 110.51
H 132.02  15.63  34.17
H  74.82  64.17  54.78
H  50.82  64.80 166.39
H  80.42  77.27  38.23
H  32.24  43.76 150.56
H 146.59  27.61  67.96
H  98.67  94.09  34.24
H   9.57 140.58  24.27
H  67.73 127.67 114.86
H  70.77 145.04 167.72
H  76.05 149.06  91.74
H  71.31 168.19 135.71
H  26.84  89.72  65.47
H  84.24 128.47  57.37
H 103.54  37.61  75.57
H 151.16 125.27  61.69
H  46.31 100.91  78.23
H 167.88  50.33 156.54
H  41.57 134.90 147.20
H  33.61  76.79 121.66
H  76.20  13.13 128.02
H  81.69  30.16  10.83
H  80.04  44.13 137.85
H  29.98   1.82 152.21
H  71.01 145.12  96.95
H 148.01 158.70  12.78
H  45.84  33.01 163.03
H 118.99 149.81 167.41
H 132.45 148.86 158.25
H 105.49 139.14 163.97
H  80.15  36.84 113.12
H  10.69  55.17  61.45
H 140.57 169.78  52.17
H  50.08 111.96 148.08
H  84.25 144.94  71.28
H  88.64  57.57  35.79
H 153.31 101.98  43.01
H  90.69  69.20   7.69
H 123.65 147.72 103.14
H  30.76  71.36  37.10
H  25.45  51.53 152.27
H 144.77 134.85 154.83
H  20.39  40.07   5.61
H   3.24 115.38  75.88
H  99.23 146.64  53.01
H  43.14 130.41   1.66
H 153.87  60.05   7.59
H  34.81  13.33 143.78
H   7.57   8.31 108.41
H  40.95  52.06 138.18
H  72.32 124.00  47.91
H  24.77  10.70 143.60
H  22.76  17.05  28.35
H  85.84 117.54  85.61
H 105.54  84.52 126.54
H 106.42  36.98  58.84
H 164.87  76.53 109.86
H  26.97 114.95 117.15
H  27.53 161.16  65.19
H  62.21 116.22 156.54
H 147.72  90.63   9.18
H  79.15 100.65 140.12
H  35.02  75.27 106.99
H 114.27  11.39 151.34
H  16.27 143.58 142.96
H 103.46  91.41  57.22
H  63.63 152.91 115.96
H  76.25  61.26 169.05
H 159.08 157.09 157.36
H  58.00 144.18 116.06
H 153.18 131.03 140.45
H 132.48  99.21 118.30
H  15.55  63.88 140.33
H  15.80  56.12 106.47
H  78.04  14.14  28.66
H 110.94  96.42 100.02
H 155.46 160.10  47.69
H 150.04  90.42 111.86
H  19.10  69.63 165.41
H 154.11  72.22  43.91
H 166.44  82.91 158.66
H   6.78  95.27  42.51
H 169.76  76.86 162.69
H  79.79  34.07 120.22
H 146.18 128.91  39.54
H 129.17 131.06  77.97
H 124.21   7.09  35.41
H  66.33 163.07 115.71
H 111.19 139.52 123.47
H  10.82 147.12 128.74
H  34.44 107.87  75.48
H   4.65 130.10  59.22
H 104.33 135.06 158.67
H  88.54  76.06 169.77
H  22.52 127.36  28.91
H  91.26  28.43 141.02
H  39.82 127.91  71.61
H 130.45  58.12 165.41
H  88.35  68.00  70.49
H  50.64 110.27  30.26
H  23.44 160.92  39.25
H 137.79  14.11 101.06
H  20.65  62.47  56.60
H 104.20   0.69  47.06
H 131.85 124.18 138.07
H  96.75 131.19  74.03
H  50.64 139.60  65.30
H  25.25 162.55  22.64
H 129.67  34.57 146.58
H 105.78 159.34  95.89
H 143.17  84.28 151.33
H  69.05 157.34 105.48
H 155.62   6.66  64.89
H 152.17  48.60  87.47
H  69.52   2.91   5.34
H  84.86  64.31 145.84
H  56.04  27.41  21.89
H  68.42   2.32 151.61
H  90.99  88.31 105.58
H 126.33   9.53 159.49
H 152.06  74.39  55.13
H  90.41  90.22  57.15
H  19.23 117.24 148.59
O 110.72  52.62  75.24
O  32.92 160.64  43.88
O  55.25 108.75 124.17
O  80.69  21.30  68.70
O 138.41  45.86  71.39
O  39.52  64.33  54.96
O  78.03 139.56 138.00
O  27.60  46.04  61.36
O 112.61 125.35 122.40
O  37.82  44.19 167.49
O 103.98 130.69  32.22
O 106.74  54.98  89.64
O  75.43 146.07  61.17
O 129.62  47.64 100.53
O 145.47  40.85  68.73
O 166.39 140.64 149.03
O 108.49  60.32  27.33
O 148.70  17.04 159.97
O 159.26 166.38 126.66
O 111.81  64.31 140.01
O  98.74  87.03  22.97
O  17.00 112.51  27.67
O 119.81  76.46  23.35
O  94.85 135.96   1.87
O  42.16  66.56  82.36
O  84.82  41.72  59.59
O  13.89  97.94   0.06
O  19.13 128.15  88.77
O  50.64  56.11   1.31
O  17.95  97.99  85.31
O 156.06  27.26   5.94
O 152.17  49.26  71.88
O  23.70  42.77  41.41
O 121.62  28.50  36.37
O  67.09  68.87   2.92
O   1.13 143.97 127.58
O 125.93  72.63 113.97
O 142.47 120.01 148.93
O 129.49 131.15 152.48
O 137.79  55.07  85.10
O  15.99  71.24 108.80
O  34.21 101.00  53.05
O  42.92  64.45 101.13
O  80.29  75.88 129.43
O 106.77 100.99  22.77
O 169.70  58.11  20.32
O 111.36 140.05 126.36
O  73.64 141.22 120.47
O  86.29 101.45  28.41
O   1.25 152.35 166.13
O  91.07 102.44 124.32
O  16.88 122.57 135.14
O  31.55  93.73 131.43
O 159.42  75.79  21.01
O 123.64  99.02  83.99
O  68.33   7.25 154.01
O  64.91   7.66  17.58
O  99.04   6.07 129.47
O 122.05   3.11 109.16
O  47.73  51.77 142.48
O  12.15  70.89 162.31
O  13.46 102.81  43.38
O  36.43  61.19 119.18
O  73.39 120.97 157.25
O 157.97  92.62  45.62
O 107.38  15.71  58.19
O  51.51 162.05  95.23
O  64.61  48.80  92.57
O  96.65 144.82  86.05
O 169.37   8.80 104.15
O  68.14  51.53  82.99
O 169.66  68.21 161.60
O  90.47  66.64  12.30
O  12.02 148.31  20.24
O  49.80  60.48  10.77
O  34.80  38.24  72.61
O  24.14 101.03  77.54
O 112.77  35.94  33.82
O  79.39  66.25  54.50
O  26.72  86.88  64.88
O  61.28 134.99  10.42
O  31.29 162.49  56.22
O  11.58  39.57  16.52
O 164.92  50.08  32.42
O  11.77 141.15  99.05
O 154.62  68.33  70.06
O  89.52 107.48  87.49
O  43.17  94.83 161.29
O  93.44  74.32  10.38
O   1.22   1.87 168.10
O  55.95 158.54  58.45
O 154.68 146.88  62.51
O  95.38  63.97 147.91
O 117.35 116.86 103.59
O 102.35 115.63 147.88
O  47.28  34.23  57.97
O 130.42 148.03  69.17
O  95.94 134.31 133.46
O 129.35  86.82 115.25
O  27.83  87.66   1.33
O  75.93  21.48 146.65
O 140.15  96.71 158.30
O  23.64 118.79  67.49
O 118.42 131.40 161.61
O 161.71  92.42 155.23
O  72.06 122.41  92.26
O 144.42  25.70 122.07
O 148.02 126.27  25.71
O 107.19 139.19  34.67
O   0.32  58.67  27.04
O 115.71   0.34  99.81
O  74.62 159.98  49.45
O  82.18   1.98  73.35
O 109.66  33.68  62.95
O 123.03  70.71  39.08
O  28.01   8.39 131.59
O  81.50  41.77  14.13
O 121.25 144.32  61.29
O  75.29 163.84  46.27
O  66.60  68.69 104.36
O  65.66 157.81 132.66
O  47.45  14.18 152.53
O 125.94  59.56 112.51
O  28.64  59.26 112.64
O  93.56 105.65  93.28
O  70.69  81.38 116.60
O 166.67  40.30 161.19
O  50.29  98.27  48.71
O 161.81 118.62  58.83
O  64.83 125.32  16.37
O  75.07  74.23 131.81
O  36.55  24.52 113.85
O  59.92  43.48  32.25
O  14.37  69.57 113.39
O 138.51  54.16   9.79
O  36.93  20.83  68.89
O   3.84 123.89  94.79
O 132.69 152.43 148.17
O  48.83  17.80  61.23
O 145.53 150.66 101.25
O  56.76  97.22  40.64
O  20.28   4.57   9.15
O 150.59  96.63  69.98
O 144.53 102.80  13.18
O 121.04  76.05 106.71
O 168.65   8.73 152.34
O  28.36  12.12  56.64
O 135.91  49.50   9.91
O 129.62 106.10 124.95
O 125.67 164.04  57.84
O 142.08  72.72  80.87
O  11.57 153.44 104.97
O  65.87  10.70  44.64
O  58.15 109.51 138.03
O  62.03  49.48  11.69
O 143.32  35.94 138.93
O 114.51  62.72  37.46
O  21.49  34.08 131.91
O 163.59 109.60  43.20
O 138.05  99.83 141.13
O  93.95 118.74  27.64
O  33.72  13.11 151.14
O  86.71  22.14 153.43
O  79.08  29.52  18.43
O  14.01  95.00  62.85
O 147.38 124.38  96.27
O  56.70 128.44 138.20
O  79.07 116.50 138.86
O  67.84  90.37  38.54
O  74.89  49.48  19.36
O 135.49 105.48 104.62
O 152.54 139.09  68.67
O  45.29  90.47 147.48
O 161.69 166.28  67.80
O 100.18  21.75  73.38
O 127.35  31.18  21.37
O  58.41  31.39  25.93
O  15.51  65.56  26.37
O 156.36   3.62   4.89
O  47.23 149.06 145.81
O  44.37  10.16 127.74
O  42.80 152.98  67.66
O  79.60  29.04 139.16
O 153.93 136.11 130.11
O  71.37  14.73   6.55
O  88.32 134.76  23.73
O  61.19  75.58 107.23
O   8.45   7.57  34.55
O  96.18  73.15 168.22
O  92.51 151.65  31.33
O   5.43 146.19  74.13
O  13.81  99.22  97.81
O  47.01 152.31 142.00
O  78.47  46.71  59.28
O 145.91  68.48 104.21
O  25.11 102.08 169.15
O 156.62  64.11  45.80
O  98.43  95.76 129.11
O   7.99 118.71 164.05
O  23.82  68.52  81.12
O 146.48  21.76   4.52
O  54.51 146.01  39.36
O  27.90 121.78   6.08
O 119.57  77.85  73.23
O 138.76  67.81  79.56
O  44.15 141.65 137.32
O 124.40   2.67  75.29
O  81.65  87.72 168.14
O  28.45 107.82 128.49
O  65.42  45.48  14.33
O 126.61  55.86  73.12
O  53.22  50.40 158.34
O 112.21 149.33  73.57
O 137.91 144.34  27.68
O 163.61  18.07  98.99
O  68.15 126.31  48.14
O 108.66 118.16  11.74
O 101.65  90.54  62.03
O  20.14  23.14 125.65
O  78.48 151.02  48.34
O 136.12  30.00  46.46
O  14.19 139.66 144.02
O  73.88  62.98 144.38
O  77.76  28.20  93.88
O  91.99 129.46 130.83
O   0.78  40.24 161.31
O  53.23 121.80  86.06
O  82.49  10.64  48.20
O 100.74  19.56  63.87
O  43.56  89.98  32.11
O 122.77  58.27  10.90
O 162.59 120.99 128.90
O 139.06  25.72  23.01
O   4.16  42.10 126.75
O  23.18 162.27  80.35
O 140.27  98.60  90.02
O  58.55 106.12  73.11
O 137.49  44.07  15.73
O 101.09  32.38  34.05
O 168.75 128.62  52.83
O  68.17  79.41  43.16
O  53.18  42.58  38.15
O  30.36 149.89 134.04
O 166.69 108.48  27.78
O  81.23 161.93 105.88
O 131.83  40.25  21.34
O 161.43  85.20 148.65
O  87.38  51.83 117.39
O  77.88  23.90 132.27
O 166.85 145.36 120.26
O 131.42 137.89   0.49
O 153.79   4.59   9.29
O 113.40  25.97 127.72
O 169.58 120.55  20.53
O  49.28 125.89 108.69
O  81.17  49.41  31.79
O  56.95  62.61  51.09
O 133.92  36.21  42.49
O  89.77  64.51  71.76
O   7.24  80.22 132.93
O 154.50 129.76  60.75
O 105.99  60.90  80.59
O 162.53  91.08 108.66
O  82.61 110.88  99.90
O   2.59  39.31 122.80
O  88.91 130.44  31.00
O  11.37 111.06  98.60
O 105.03 135.04  41.12
O 160.54 152.64 156.21
O 134.41  45.34 147.04
O 164.34 159.84 152.16
O 129.47  44.55  31.92
O  93.40 156.22  89.73
O  89.05 120.21  20.70
O  82.46  60.70  49.18
O  38.61 139.16 158.54
O 129.39 161.75  88.38
O  57.98 161.40  48.81
O  14.62  98.30 153.00
O  79.50  67.67 105.71
O  68.42 101.66  54.60
O  22.89 101.04 122.35
O 120.75 100.68  18.19
O 125.68  41.07   1.49
O  79.26 130.09  61.23
O  64.91 120.98  87.85
O  90.13 161.07  58.59
O 105.90  18.67 123.99
O  61.44 120.97 106.04
O 157.82  21.43  20.03
O 161.16  84.02 136.85
O  78.82   7.04 131.86
O  61.57  87.39 108.30
O 108.47 130.84 101.60
O  36.53 125.67  17.22
O 146.01 164.41 135.65
O  74.45  68.48 152.36
O   3.77 149.53  49.35
O  64.19  51.66  60.11
O 122.92 169.37  69.08
  600
  Step: 3000
H  31.08   7.60  75.05
H 116.59  66.95  86.60
H   8.85  85.83 158.05
H 148.19 117.89  15.35
H 149.77 145.56  28.29
H 116.56   1.19  20.05
H  56.97  23.60 134.52
H 130.10  58.27  54.42
H  11.09  15.28 123.86
H 104.05   7.04  77.10
H  71.13 144.58 118.55
H 100.31  95.64   0.39
H   0.77  53.06  35.00
H 139.85  13.22  67.57
H  11.90  54.29  11.96
H  51.52 134.50 149.70
H 142.80  98.25 110.19
H  60.93  26.07  87.42
H 123.97   6.30   6.28
H 129.91  55.87 122.61
H 123.53 164.92  68.31
H  57.34 146.01 133.45
H 106.58 139.40 113.65
H 163.63  56.21 122.48
H 164.02  57.14 104.66
H  62.16  78.46  12.75
H   3.41 125.78  81.73
H 103.59 123.11  74.74
H  62.10  37.29 133.88
H 140.97 128.92 142.22
H 109.34 117.80  29.77
H 131.31  58.26  75.28
H  56.28  96.13 108.90
H  96.60  65.34  38.58
H 142.88  56.32  73.54
H  15.12  48.74  11.94
H  57.12 124.90 164.66
H 108.96  39.85 114.29
H 112.72 145.94  89.61
H 147.08  71.50  49.39
H  83.13 157.56 123.74
H  77.15  79.73 109.74
H  82.35  88.72 160.48
H 164.84 145.01  22.68
H  93.97  61.76 156.97
H  52.24 158.60  38.34
H  72.31 166.72 107.57
H 155.18  94.32  37.68
H 118.42  85.34  85.01
H  23.31  26.98 159.67
H 156.73 165.84  65.87
H   9.48  96.77 123.06
H 102.57   6.65  38.65
H 119.36  10.25 138.52
H 168.14  42.13   9.20
H 165.44 125.62  72.82
H  74.56 154.11  59.11
H  13.54 102.70  52.74
H 118.89 164.52  65.24
H  41.54   8.14 138.82
H  18.83 158.06 115.76
H 145.07 134.84  40.23
H  37.03 159.79  49.22
H 133.31  28.46  53.43
H 105.84  47.45 126.05
H 151.49  57.19  52.47
H   0.36  67.89  10.84
H  90.26 117.38  92.08
H 102.11 107.43 153.74
H  86.63 146.61  61.39
H  23.91  37.72 134.86
H  38.48 136.00 159.41
H  94.21  21.76 107.16
H  64.57 154.87  40.87
H  42.58  81.37  82.69
H  31.36  63.25 110.84
H  78.98   4.96  70.27
H  76.18  77.33   5.52
H  47.82 163.21 148.26
H 155.28 128.49  74.78
H 158.11  43.85  99.04
H  92.65  71.75  46.72
H  57.54 117.67  46.84
H  57.86  56.79  56.38
H 138.21  86.36 169.96
H 118.42  82.51 129.81
H  88.43  51.89 145.50
H  28.14  41.47  78.34
H 139.79  18.96  51.10
H  90.00 120.51  14.15
H 128.36 102.31  82.55
H  67.97  56.96 150.04
H 167.08  32.32  38.76
H 116.16 134.23 140.39
H  55.81  36.22  14.46
H  63.59  99.83 150.70
H   6.17  18.14 110.20
H 111.01  23.79  14.82
H   2.78 110.93  45.77
H  36.54 110.98  23.22
H  94.01  18.88  13.86