  468
  Step: 1000
H  18.95  28.36  28.73
H   0.94   9.85  30.74
H  16.74  11.50  18.25
H   7.04  27.75  12.10
H  20.55   0.36  22.03
H   6.93  30.77  12.35
H  24.83  25.18  28.73
H   3.23  10.67  15.86
H  22.21   8.50  23.14
H  20.33   7.27  10.06
H  29.29   2.75  24.64
H   2.06  24.14  24.50
H  13.46  32.72  14.92
H   6.27  11.60  23.59
H  11.79   1.70  10.43
H  32.96   9.50  15.24
H  24.26  31.14   5.79
H  11.60  19.49   0.36
H  32.86   8.14   3.63
H  17.95  16.37  24.22
H  20.49  20.50   4.96
H  17.79   1.43   4.18
H  14.86  14.16  24.21
H   2.43   9.20   5.46
H  17.10  19.80  23.47
H   7.06  13.78  15.40
H   2.74  18.82   7.54
H  32.98  31.92   2.28
H  22.00  17.83   2.95
H  18.50  14.54  17.35
H  30.52   0.96  20.36
H  11.69  14.49  25.59
H   4.04  31.47  26.63
H  31.96   7.82  12.96
H   1.25   3.98  27.00
H   6.17   3.51   7.63
H   0.23  24.71  28.18
H  29.09   8.93  15.21
H  24.43  21.47   8.83
H  12.85  29.87  24.12
H   2.00   6.60  30.56
H  12.35   6.04  11.65
H  12.82  24.56   5.99
H  29.09  12.23  15.37
H   4.29   8.98  31.21
H  16.68   4.96  17.52
H  20.42  28.70  15.10
H  31.93   6.04  16.82
H  13.25   9.20  19.93
H   2.63  16.34  15.64
H  24.28   9.68   7.16
H   6.78  32.41  14.95
H  31.20  29.94  14.99
H  13.53  21.81  30.82
H  26.55  15.66  16.30
H   7.91  20.27   3.04
H  18.86   3.02  17.18
H  19.72  25.50  17.33
H  19.10  16.91   3.13
H  16.85  11.06   0.07
H  18.72  13.62  31.46
H  19.69  15.64  32.85
H   4.79  12.44  12.12
H  25.10  18.86  22.71
H  13.60   7.17   4.85
H   8.40  13.06   2.26
H  24.86  25.23  25.60
H   5.76   8.24  10.31
H   0.48  12.71  22.53
H   3.25  22.91   3.03
H  29.25  15.55  19.72
H  13.96  27.28  10.04
H  25.13  22.20  15.76
H   3.31   3.16  23.00
H   3.36  24.04  21.40
H  22.46  10.20   4.25
H  27.20  15.05  24.40
H  13.14  16.08  16.34
H   6.60  10.06   0.12
H   2.85  20.86   4.70
H  16.83   6.36   0.83
H  16.91  14.67  22.17
H  10.08  30.62  14.03
H  21.54  22.78  31.32
H  22.12   6.04  21.46
H  26.87  31.23  14.35
H  22.09  30.40  16.34
H  15.19  31.65  32.59
H  31.92  31.45   9.66
H  26.56  21.17  11.96
H  26.49  18.15  10.46
H   2.32  11.47   9.44
H  12.14  27.45  17.50
H  23.80   7.91  10.79
H   4.72  12.47  15.62
H  32.14  13.51   0.25
H  16.46  16.67  10.86
H   2.02  32.76  24.18
H   6.44   3.37   0.82
H  20.36  10.47  17.40
H   7.72  32.53  19.09
H  27.63  11.01  29.94
H   4.51  31.96   1.24
H  13.36  29.16  13.53
H   4.29  16.50  24.29
H   4.35   7.65  23.18
H  32.48   5.36  32.91
H  14.77  25.56  21.38
H  31.34  28.23  11.09
H   9.82  18.34  14.37
H   8.23  16.59  15.69
H  18.82   3.43  30.70
H  32.37  28.23  11.89
H  18.10  30.04  11.90
H   7.26  31.84   8.38
H  30.22   2.62   5.83
H  23.51  30.73  10.88
H  15.68  14.67  17.46
H  24.29  18.78  26.58
H  31.45  18.64   1.94
H  15.26  24.36  17.67
H  16.93   3.76  20.49
H  13.40  26.35  31.24
H  22.69  12.94  21.71
H   9.49  21.42  32.50
H  19.56  19.69  18.47
H  15.46  32.97   5.82
H   5.51  11.35  29.26
H  14.34  26.56  23.85
H  23.05  20.57   1.13
H  14.57  32.22   6.97
H  16.30  15.11   4.13
H  32.62   2.13  26.78
H  13.87  16.51  27.35
H  16.26  24.03  29.26
H   7.94  14.59  27.77
H  32.88  12.38  15.81
H   8.43   4.43  19.05
H  32.33  22.60   2.58
H   4.92   9.27  26.66
H  29.32  32.78  11.39
H   0.46   0.59  26.66
H   8.34  24.10  22.93
H  16.55   4.84  14.56
H  20.22  24.45   0.96
H  30.53  29.62   1.98
H   7.68  29.36  15.96
H   7.95  24.46  26.51
H  11.58  10.38   8.02
H   0.42  19.56  27.03
H  22.94  22.45  28.25
H   0.73  12.53  14.03
H  18.87   8.72  22.54
H   6.09  19.19  30.33
H   9.45   6.90  17.18
H   3.63  18.72  29.65
H  17.67  22.82   8.68
H  14.04  11.37  11.42
H  30.25  29.23  11.07
H  31.70  17.19  23.12
H   7.39  23.95  24.99
H   4.26   3.08  19.53
H  21.71   2.62   1.23
H  32.40  28.40  29.14
H  23.32  28.73   6.38
H   4.30  18.67  31.11
H   3.12  28.32  12.21
H   9.15  24.16  19.46
H  10.56  15.52   1.55
H  14.96   5.74  27.61
H  29.80  21.68  31.21
H   9.17  13.75  24.61
H  25.09   7.49   2.35
H  22.64   4.07  20.19
H   0.28  16.64  12.57
H  24.61  29.65  16.43
H  22.52   2.77   8.81
H   7.65  29.69   1.52
H   9.57  14.78  19.61
H  25.65  13.18  16.23
H   0.25  18.93   8.43
H  16.26   5.67  31.20
H  13.85   0.72  24.87
H  14.58   7.74  17.57
H  31.74   9.87  19.51
H   7.08  15.24  11.64
H  14.24   4.37   2.10
H  21.79  13.47  30.28
H  19.21  23.31  28.78
H  10.79  20.25  16.30
H  13.59  16.59  12.29
H   3.16   0.07  18.42
H  27.11   4.38  23.45
H  24.82   0.88   0.28
H  27.46  13.93  11.72
H  11.77   6.04  17.44
H  31.21  17.47   6.68
H  29.25  20.72   4.66
H  23.83   1.94  13.29
H  21.98  11.50  25.80
H   0.88   4.74  13.54
H  30.35   5.34   3.77
H   5.85  30.73  20.83
H  26.59  10.85  21.50
H  31.45  26.65   6.84
H  10.06  28.96  11.70
H  10.24  27.10  15.21
H  32.14  12.22   9.75
H  29.47  27.25  15.15
H  20.42  16.01  13.80
H  12.23  20.49  10.91
H  12.41  23.18   1.35
H  32.75  10.15   6.48
H   8.49  32.87   0.08
H  13.66  10.30   7.28
H  31.34   6.86   6.47
H  24.74  23.59  22.27
H  23.09  29.85  27.44
H  16.44   8.68  19.96
H  20.15  13.11  28.35
H   2.26  26.24  32.49
H  29.09  24.81   8.88
H   0.56  17.43  28.46
H  26.57  28.63   1.51
H   7.04  12.82   4.96
H   9.12  30.60  23.92
H  31.66  15.70   3.78
H   6.90  19.05   6.38
H  22.38  14.66  10.00
H  25.22   1.28  29.92
H  21.23  26.38  29.93
H  12.57  13.22  21.83
H  32.20  26.36  31.47
H  32.86  27.90  25.44
O  20.82  31.50  10.42
O   5.40  31.73   9.12
O   8.78  23.04   6.47
O  10.28  25.16  21.82
O  10.89   7.62  32.61
O  28.44  17.60  16.88
O  20.91  25.11  21.55
O   6.88  16.27  20.79
O  25.08  10.59  26.31
O  10.63  11.97   3.33
O  14.05   9.44  25.98
O  29.25  23.30  21.31
O  28.61  15.32  17.17
O  25.95   0.59   2.78
O  27.01  23.05   5.07
O  28.14  25.99  28.13
O  24.15   0.82  18.68
O   3.13  14.16  31.56
O  18.48  15.42   0.74
O  31.86  18.65  18.64
O  16.08  29.66  15.53
O  15.13  14.44  20.63
O  17.52  31.36  12.97
O  20.68   1.53  29.58
O  19.46   0.39  18.23
O  23.30  13.59  12.44
O   3.56   5.25  25.73
O  19.65  10.78   4.06
O  28.14   8.84   3.39
O  13.80   8.97   9.80
O  28.78  22.52  11.98
O   1.62  18.50  10.67
O  28.42  12.01  17.87
O  13.48  15.64   0.15
O   3.28  20.10  26.44
O  26.83  27.68  10.91
O   3.51  16.87   3.26
O   6.43  19.85  17.13
O  27.70  15.19  13.69
O  13.43  13.54   5.18
O  28.16  11.83   6.53
O   4.71  29.88  28.93
O   7.03  22.29  28.85
O  14.42   2.13  29.57
O  28.33  29.07  22.86
O  15.07  17.76  30.96
O  29.89  24.46  30.81
O  27.89  17.24  13.50
O  22.16  13.23  17.05
O   7.51  18.50  17.65
O  29.40  25.09   5.00
O  26.03   6.63  10.31
O  13.51  23.22   6.32
O   3.76  32.69   4.16
O  21.81   0.12   8.97
O  16.44   5.83  20.91
O   0.30  20.18  19.46
O  16.66   8.56  13.23
O   5.81  27.03  32.68
O  23.04  28.51  23.61
O  15.16  12.67   2.94
O  20.80  10.59  11.44
O   8.12   6.35  13.13
O   8.48  31.84  27.36
O  11.54   5.05   2.74
O   3.53  22.39   7.41
O   6.15  14.94  19.92
O   8.16  20.26  28.52
O  32.95  24.67  13.92
O   9.64   4.46  14.35
O  31.31  13.58  29.75
O  22.86  28.58  18.44
O   2.89  11.15  19.71
O   7.17  18.89  14.68
O  22.35  27.60  13.54
O   2.44   9.17   8.14
O   3.19  15.94  32.88
O   7.80   1.11  24.98
O   0.92  31.71  13.62
O   5.99  10.29   5.45
O   3.67  15.85  28.12
O  15.00  15.77  25.05
O   8.87  28.62   9.91
O  17.69  23.11  16.76
O  24.57   5.42  24.33
O  12.63  32.68  28.87
O  22.96  14.35   5.59
O  31.68  14.75   8.15
O   2.16   6.06   8.71
O   5.51  20.64  25.48
O  18.17  24.19  14.61
O  17.25  11.71   5.86
O  22.25   6.02  29.63
O   4.17  15.32  10.42
O   2.02  25.11   7.45
O  12.90  30.26   4.61
O   7.33   7.61  24.36
O  28.64  21.45  27.40
O  12.56   9.54  16.61
O  10.39  13.06  26.82
O  32.39  21.71  23.94
O   6.65   6.61   0.79
O  18.04   2.66   7.10
O   0.34  19.48  14.35
O   8.03  28.71  29.65
O  13.47  18.89   6.75
O   3.19   1.51  15.02
O  29.94  17.81  30.52
O  18.32  28.93   1.83
O  17.83   1.75  23.77
O   5.43  22.16  14.23
O   2.63  26.50  25.68
O   8.14   2.17  21.09
O  14.43  25.14  12.01
O   9.25  10.29  22.15
O  20.95   6.88  20.73
O  17.09  19.08   3.98
O  15.22  29.47  16.75
O  24.95  14.68   7.83
O   2.99  12.44  12.02
O  14.32  25.86  20.83
O  13.22  20.44   7.69
O  22.50  20.52  13.78
O  29.07   0.14   5.94
O  14.82  21.60  13.87
O  15.71  23.53  25.28
O  10.83  25.49  11.66
O  10.19  20.95  19.98
O  17.80  14.39  19.15
O  27.85   0.97  13.67
O   8.50   4.99  25.34
O  10.83  11.78  30.93
O  30.58   5.14  26.72
O  20.35  24.05  25.91
O  26.53  32.35  22.52
O   4.55   2.03  17.15
O  21.96   9.00  19.66
O   8.82   3.33  28.78
O  18.99  21.34   9.99
O  31.28  31.77  30.90
O  10.60  19.76   3.66
O   1.30   6.85   4.99
O   7.64   5.12  32.29
O  17.84  24.31   6.49
O  29.04  14.61   3.58
O  20.10  18.07  15.95
O  10.66  16.96  17.36
O  18.16  28.87  23.80
O  18.68   5.21   2.40
O  18.19   6.14   6.15
O  12.21  19.04   7.74
O  12.13  24.98  15.88
O  27.69  31.31   4.92
O  18.34   9.54  31.40
O  13.65   5.45  12.65
O  22.79  11.85   1.54
O  20.52   9.33  25.67
O   5.33  26.08   8.59
O  25.38  26.46   6.98
O   5.25  16.00   6.09
O   5.83   9.61  16.93
O  27.61  10.73   1.46
O  16.41  29.65  28.29
O  23.79  12.35   8.43
O   3.89  17.00   9.52
O   9.74   0.87   4.54
O  21.59  18.55  22.01
O   2.44  27.79   4.76
O  24.86  25.32   2.27
O   6.18   8.49  29.03
O   8.04   8.62  18.87
O  32.28  14.96  15.88
O  12.17   3.08  26.90
O  18.20  21.76  32.64
O  22.57  15.28  25.85
O  25.89  16.03  22.04
O  31.36  18.52  10.95
O  29.80   7.79   0.23
O  11.38   8.73   2.00
O  23.72   6.75  16.07
O   3.51   0.86  11.59
O  20.17  15.41   5.20
O   2.27  17.34   0.27
O   5.64   7.99  14.66
O  26.32  20.89  23.55
O   1.67  15.29  23.08
O  19.91  18.89  29.98
O  10.67  17.59  22.68
O  19.57   0.81   7.07
O  15.74   3.41  15.01
O   7.95  13.34   9.64
O  27.45   9.18  10.23
O  22.01  26.76   4.49
O  18.86  19.60  26.21
O   6.97   5.73   5.82
O  21.13   6.99  17.64
O  11.15  22.87  25.04
O  23.18  30.28  19.59
O  14.37  20.75  21.02
O  11.21  21.95  29.20
O  32.30  32.64  17.77
O  28.36  32.64  19.61
O  14.90  26.88   8.72
O  10.20  24.69  28.19
O   0.22   5.68   4.84
O   3.34   1.67  30.15
O   0.80  26.50   9.33
O   0.28  21.88   6.86
O   9.46  21.51  25.42
O  22.92   1.05  25.85
O  26.51  12.81  23.81
O  29.24   5.27  11.22
O  16.53  20.14   2.64
O  31.30  31.33  27.56
O  21.55   6.29  13.16
O  14.74  22.78   2.75
O  30.64   4.17  32.22
O  30.35  32.02  23.74
O  27.79  18.85   8.27
O  21.35  10.79  28.34
O  14.26   9.74  22.58
O  14.68   4.61  24.51
O   9.79  28.36  25.75
O   5.51  25.16   0.47
O  29.71  17.58  28.84
O  10.31  32.88  19.86
O  17.77  27.99  20.06
O  18.56   3.24  25.75
O  31.96  20.99  10.27
O  29.08  23.66  13.65
O  25.03  16.96   3.76
O  21.48  30.78  32.06
O   5.59   5.49  14.55
O  11.38  18.95  11.04
  468
  Step: 2000
H  18.95  28.36  28.73
H   3.13   7.06  14.72
H  21.58  21.52  10.84
H   7.04  27.75  12.10
H  20.50  31.88  23.28
H   6.93  30.77  12.35
H  25.90  31.64  10.31
H   3.23  10.67  15.86
H  22.21   8.50  23.14
H  20.33   7.27  10.06
H  29.29   2.75  24.64
H   2.06  24.14  24.50
H  14.46   0.98  14.19
H   6.27  11.60  23.59
H  30.07  27.48   1.14
H  32.96   9.50  15.24
H  24.26  31.14   5.79
H  11.60  19.49   0.36
H  31.94   8.11   2.76
H  18.64  16.66  24.29
H  20.49  20.50   4.96
H  17.79   1.43   4.18
H  16.75  13.66  24.46
H   2.43   9.20   5.46
H  15.98  20.63  23.97
H   7.06  13.78  15.40
H   2.74  18.82   7.54
H  32.98  31.92   2.28
H  22.00  17.83   2.95
H  19.49  15.22  16.57
H  30.31   2.33  19.38
H  14.41  18.80  14.96
H   4.04  31.47  26.63
H  31.96   7.82  12.96
H   1.25   3.98  27.00
H   6.21   1.94   8.29
H   0.23  24.71  28.18
H  29.09   8.93  15.21
H  24.43  21.47   8.83
H  13.18  30.76  23.64
H   2.00   6.60  30.56
H  11.02   5.58  11.70
H  11.80  26.23   4.40
H  29.14  11.97  13.71
H   3.30   9.91   1.14
H  16.68   4.96  17.52
H  20.42  28.70  15.10
H  31.36   6.19  15.30
H  13.58   5.12  20.83
H   2.63  16.34  15.64
H  24.28   9.68   7.16
H   6.78  32.41  14.95
H  32.38  30.56  15.49
H  13.53  21.81  30.82
H  25.86  15.27  17.90
H   7.91  20.27   3.04
H  19.24   3.62  15.81
H  11.28  17.04  28.72
H  19.10  16.91   3.13
H  15.61   9.98  32.65
H  18.72  13.62  31.46
H  21.09  15.54  32.13
H   4.79  12.44  12.12
H  24.24  19.51  21.69
H  13.60   7.17   4.85
H   7.81  13.32   1.16
H  24.86  25.23  25.60
H   6.33   9.36  11.51
H   0.48  12.71  22.53
H   3.79  22.57   3.09
H  30.55  15.80  20.23
H  13.96  27.28  10.04
H  24.88  21.21  14.66
H   3.31   3.16  23.00
H   3.36  24.04  21.40
H  22.46  10.20   4.25
H  27.20  15.05  24.40
H  13.14  16.08  16.34
H   6.60  10.06   0.12
H   1.99  21.00   5.07
H  16.83   6.36   0.83
H   3.58  19.61  22.96
H  20.63  24.54   4.91
H  21.54  22.78  31.32
H   5.45  19.18   8.43
H  17.56  30.92  30.50
H  22.09  30.40  16.34
H  10.03   6.03  29.70
H   0.61  21.74  16.45
H  26.56  21.17  11.96
H  26.49  18.15  10.46
H   6.94  25.32   5.79
H  12.14  27.45  17.50
H  15.35  31.95  32.85
H  24.70   3.63  19.59
H  32.84  12.90   1.76
H  16.46  16.67  10.86
H   2.02  32.76  24.18
H  13.63   2.18  32.48
H  18.77   9.79  16.56
H   7.72  32.53  19.09
H  27.63  11.01  29.94
H   4.51  31.96   1.24
H  13.41  28.10  13.27
H   4.29  16.50  24.29
H   4.35   7.65  23.18
H  32.48   5.36  32.91
H  14.77  25.56  21.38
H  30.91  25.99   9.95
H  10.62  17.94  14.06
H   8.23  16.59  15.69
H  18.82   3.43  30.70
H  32.60  29.52  12.30
H  16.68  30.44  10.73
H   7.26  31.84   8.38
H  30.22   2.62   5.83
H  23.17  30.10   9.31
H  15.44  14.77  14.33
H  24.96  18.70  27.76
H   7.98  27.70   7.82
H  14.47  28.21  26.60
H  15.72   3.48  19.11
H  13.40  26.35  31.24
H  22.69  12.94  21.71
H   9.49  21.42  32.50
H  19.56  19.69  18.47
H  15.46  32.97   5.82
H   5.51  11.35  29.26
H  14.34  26.56  23.85
H  23.05  20.57   1.13
H  16.66  30.49   7.67
H  16.30  15.11   4.13
H  32.62   2.13  26.78
H  13.82  14.89  28.50
H   0.33   2.10   0.10
H   7.94  14.59  27.77
H  31.27  12.17  16.89
H   8.43   4.43  19.05
H  30.99  23.42   3.25
H   4.92   9.27  26.66
H  29.32  32.78  11.39
H   0.37   0.63  27.33
H   8.58  23.35  21.68
H  16.55   4.84  14.56
H  20.22  24.45   0.96
H  30.42  30.78   2.00
H   6.82  28.33  15.70
H   8.67  25.70  27.03
H  10.13  10.00   7.86
H   0.42  19.56  27.03
H  22.94  22.45  28.25
H   0.73  12.53  14.03
H  18.87   8.72  22.54
H   6.09  19.19  30.33
H   9.45   6.90  17.18
H   2.32  20.51  29.04
H  18.12  23.09  10.17
H  14.04  11.37  11.42
H  30.00  30.02  10.26
H  32.11  19.11  23.31
H   7.39  23.95  24.99
H   3.81   3.28  19.85
H  21.71   2.62   1.23
H  32.40  28.40  29.14
H  23.32  28.73   6.38
H   4.30  18.67  31.11
H   1.98  25.64  12.20
H   2.57  12.94   4.24
H  10.56  15.52   1.55
H  13.96   7.64  29.87
H  18.32   0.08   0.18
H   9.17  13.75  24.61
H  24.60   7.58   3.41
H  21.59   4.49  20.83
H   0.28  16.64  12.57
H  24.61  29.65  16.43
H  22.52   2.77   8.81
H   7.65  29.69   1.52
H   8.83  13.74  20.56
H  25.65  13.18  16.23
H   9.51  32.31  12.27
H  17.56   6.58  31.07
H  11.91   0.79  24.45
H  14.58   7.74  17.57
H  31.74   9.87  19.51
H   7.86  16.79  11.97
H  14.24   4.37   2.10
H  23.72  15.61  28.69
H  19.21  23.31  28.78
H  26.89  16.86  32.97
H   8.73   9.52  25.05
H   3.16   0.07  18.42
H  27.11   4.38  23.45
H   6.05  21.62  11.20
H  26.27  15.03  11.14
H  11.77   6.04  17.44
H  31.21  17.47   6.68
H  29.25  20.72   4.66
H  23.83   1.94  13.29
H  21.98  11.50  25.80
H   0.92   4.65  12.23
H  30.35   5.34   3.77
H   5.85  30.73  20.83
H  26.59  10.85  21.50
H  32.30  27.66   6.13
H  10.45  28.27  10.13
H   9.48  25.60  15.97
H  32.14  12.22   9.75
H  29.47  27.25  15.15
H  18.84  16.10  13.73
H  12.23  20.49  10.91
H  12.41  23.18   1.35
H  32.75  10.15   6.48
H  18.82  27.07  12.81
H  13.66  10.30   7.28
H  31.34   6.86   6.47
H  24.26  24.95  21.53
H  22.94  28.68  27.38
H  16.44   8.68  19.96
H  20.15  13.11  28.35
H   2.97  26.84  31.73
H  29.09  24.81   8.88
H   0.13  17.49  28.45
H  26.85  27.78   1.59
H   7.04  12.82   4.96
H  17.53  31.67  27.02
H  31.66  15.70   3.78
H   6.90  19.05   6.38
H  22.38  14.66  10.00
H  25.32   2.62  29.87
H  21.23  26.38  29.93
H  12.57  13.22  21.83
H  32.20  26.36  31.47
H  32.86  27.90  25.44
O  20.82  31.50  10.42
O   5.54  32.41   7.95
O   8.78  23.04   6.47
O  10.28  25.16  21.82
O  10.89   7.62  32.61
O  28.44  17.60  16.88
O  21.25  24.88  20.08
O   6.31  16.34  21.41
O  25.78  10.26  25.98
O  10.63  11.97   3.33
O  14.65  10.44  27.62
O  29.89  24.28  19.83
O  28.61  15.32  17.17
O  25.95   0.59   2.78
O  27.01  23.05   5.07
O  28.14  25.99  28.13
O  24.15   0.82  18.68
O   3.25  14.02  31.63
O  18.78  15.95   0.45
O  31.86  18.65  18.64
O  16.08  29.66  15.53
O  31.94  27.95  16.77
O  18.64  31.96  13.12
O  20.68   1.53  29.58
O  19.46   0.39  18.23
O  23.30  13.59  12.44
O   3.56   5.25  25.73
O  19.45  10.64   3.91
O  28.14   8.84   3.39
O  13.80   8.97   9.80
O  28.78  22.52  11.98
O  10.17  24.71   2.29
O  28.42  12.01  17.87
O  13.48  15.64   0.15
O   3.28  20.10  26.44
O  26.74  27.23  11.36
O   4.58  17.29   2.94
O  31.92   9.58  32.45
O  27.70  15.19  13.69
O  12.81  14.16   5.43
O  28.16  11.83   6.53
O  32.95  30.57   6.94
O   7.03  22.29  28.85
O  16.03   3.71  29.48
O  28.29  27.55  22.32
O  15.07  17.76  30.96
O  29.89  24.46  30.81
O  27.89  17.24  13.50
O  22.54  13.06  17.21
O   7.51  18.50  17.65
O  29.40  25.09   5.00
O  26.03   6.63  10.31
O  13.51  23.22   6.32
O   3.76  32.69   4.16
O  21.81   0.12   8.97
O  24.41  21.43  31.41
O   0.30  20.18  19.46
O  16.66   8.56  13.23
O  15.63   0.74  18.87
O  23.04  28.51  23.61
O  15.16  12.67   2.94
O  20.80  10.59  11.44
O   8.18   4.42  12.29
O  23.90   4.94   2.27
O  11.54   5.05   2.74
O   3.53  22.39   7.41
O   4.27  12.49  19.66
O   8.16  20.26  28.52
O  12.94  29.74  32.90
O   9.94   4.41  15.41
O  31.31  13.58  29.75
O  22.86  28.58  18.44
O   2.59   8.98  19.51
O   7.17  18.89  14.68
O  22.11  27.29  12.98
O   2.44   9.17   8.14
O   2.37  16.35   1.62
O  17.39  25.62  29.91
O   0.92  31.71  13.62
O   5.99  10.29   5.45
O   4.08  32.28  22.40
O  15.00  15.77  25.05
O  10.01  29.91   8.01
O  17.69  23.11  16.76
O  24.57   5.42  24.33
O  12.63  32.68  28.87
O  23.53  14.26   4.53
O  31.68  14.75   8.15
O   2.16   6.06   8.71
O   4.71  22.13  23.22
O  17.84  25.61  14.99
O  17.25  11.71   5.86
O  23.63   6.36  28.73
O   4.17  15.32  10.42
O   2.02  25.11   7.45
O  12.90  30.26   4.61
O  30.80  11.30   5.00
O  28.64  21.45  27.40
O  13.03  10.37  16.04
O  10.39  13.06  26.82
O  32.39  21.71  23.94
O   8.06   7.49   1.58
O  16.94   3.08   6.14
O   0.34  19.48  14.35
O   9.29  29.45  30.34
O  15.75  19.77   9.25
O   1.57   1.81  16.88
O   3.58  17.86  18.27
O  18.32  28.93   1.83
O  17.83   1.75  23.77
O   5.43  22.16  14.23
O   2.63  26.50  25.68
O   8.14   2.17  21.09
O  14.43  25.14  12.01
O   9.25  10.29  22.15
O   2.22   1.83   8.04
O  11.39  11.19  14.83
O  15.22  29.47  16.75
O  26.47  13.78   8.61
O   3.23  11.72  13.19
O  14.69  27.37  21.21
O  13.22  20.44   7.69
O  22.50  20.52  13.78
O  28.47   0.41   6.70
O  14.82  21.60  13.87
O  15.71  23.53  25.28
O  10.83  25.49  11.66
O  10.19  20.95  19.98
O   8.21  29.37  18.83
O  27.04   3.19  14.36
O   7.08   5.52  24.83
O  10.83  11.78  30.93
O  30.58   5.14  26.72
O  20.35  24.05  25.91
O  25.07  32.81  23.17
O   4.55   2.03  17.15
O  21.96   9.00  19.66
O   9.13   1.73  28.49
O  17.72  20.38   9.80
O  32.47   0.40  31.00
O  10.60  19.76   3.66
O   1.30   6.85   4.99
O   7.48   4.90  32.97
O  17.84  24.31   6.49
O  29.04  14.61   3.58
O  20.10  18.07  15.95
O  10.66  16.96  17.36
O  18.16  28.87  23.80
O  18.68   5.21   2.40
O  18.19   6.14   6.15
O  11.78  17.49   7.45
O  12.13  24.98  15.88
O  29.21  31.01   4.48
O  18.34   9.54  31.40
O  13.65   5.45  12.65
O  22.79  11.85   1.54
O  20.52   9.33  25.67
O  23.16  20.51   6.62
O  25.38  26.46   6.98
O   5.25  16.00   6.09
O   5.83   9.61  16.93
O  27.66  11.92   0.92
O   1.29  24.70  19.76
O  23.79  12.35   8.43
O   3.89  17.00   9.52
O   9.74   0.87   4.54
O  21.59  18.55  22.01
O   3.27  29.03   3.48
O  24.86  25.32   2.27
O   6.18   8.49  29.03
O   8.04   8.62  18.87
O  32.28  14.96  15.88
O  11.81   3.47  25.58
O  18.20  21.76  32.64
O  22.57  15.28  25.85
O  25.89  16.03  22.04
O  30.25  18.14  10.01
O  29.80   7.79   0.23
O  12.04  10.00   2.71
O  24.57   7.06  17.24
O   3.51   0.86  11.59
O  18.79  15.41   5.27
O   1.33  17.80   1.07
O   6.69   9.71  14.95
O  27.42  22.29  23.97
O   0.49  14.93  24.60
O  19.91  18.89  29.98
O  10.67  17.59  22.68
O  18.80  32.31   6.27
O  16.63   2.44  15.99
O   9.15  13.46   9.96
O  27.45   9.18  10.23
O  22.01  26.76   4.49
O  18.86  19.60  26.21
O   6.97   5.73   5.82
O  20.82   5.12  17.17
O  11.46  22.72  25.06
O  23.18  30.28  19.59
O  14.37  20.75  21.02
O  11.21  21.95  29.20
O   0.19  31.96  18.58
O  28.36  32.64  19.61
O  14.31  27.87   8.08
O  23.79  26.67  30.80
O   0.52   5.11   2.45
O   3.34   1.67  30.15
O   0.80  26.50   9.33
O   0.28  21.88   6.86
O   9.94  19.73  25.05
O  23.28   0.28  26.89
O  26.51  12.81  23.81
O  30.46   4.60  10.79
O  17.05  19.59   2.20
O  30.71  30.07  27.09
O  21.55   6.29  13.16
O  14.74  22.78   2.75
O  30.64   4.17  32.22
O  30.35  32.02  23.74
O  27.79  18.85   8.27
O  22.16  11.00  30.55
O  14.26   9.74  22.58
O  14.68   4.61  24.51
O   9.79  28.36  25.75
O   5.51  25.16   0.47
O  30.05  16.52  28.18
O  11.82   1.12  20.20
O  17.93  28.53  20.12
O  18.56   3.24  25.75
O  32.26  21.36   9.65
O  28.74  23.95  14.34
O  26.36  17.13   2.93
O  21.48  30.78  32.06
O   5.59   5.49  14.55
O  11.38  18.95  11.04
  468
  Step: 3000
H  18.95  28.36  28.73
H   3.13   7.06  14.72
H  21.58  21.52  10.84
H   7.04  27.75  12.10
H  20.50  31.88  23.28
H   5.92  30.93  12.32
H  25.90  31.64  10.31
H   3.23  10.67  15.86
H  22.21   8.50  23.14
H  19.23   8.55  10.32
H  29.29   2.75  24.64
H  14.22   9.01   3.94
H  14.46   0.98  14.19
H   5.75  11.47  22.79
H  30.07  27.48   1.14
H  32.96   9.50  15.24
H  25.72  30.22   4.81
H  11.60  19.49   0.36
H   0.82   8.39   2.44
H  18.64  16.66  24.29
H  21.10  21.28   4.62
H  30.18  19.16  32.15
H  18.03  13.00  25.49
H   2.43   9.20   5.46
H  16.36  20.24  24.70
H   7.06  13.78  15.40
H   2.74  18.82   7.54
H   0.67  31.49  32.55
H  22.00  17.83   2.95
H  19.49  15.22  16.57
H  23.39  32.41   1.19
H  14.88  19.63  16.23
H   4.04  31.47  26.63
H   0.74   8.35  12.02
H   1.25   3.98  27.00
H   6.21   1.94   8.29
H   0.23  24.71  28.18
H  29.46   9.15  14.47
H   4.42  27.33  14.14
H  13.18  30.76  23.64
H   2.00   6.60  30.56
H  11.02   5.58  11.70
H  11.80  26.23   4.40
H  29.26  11.61  12.08
H   3.30   9.91   1.14
H  16.68   4.96  17.52
H  21.65  27.33  14.60
H  31.36   6.19  15.30
H  13.58   5.12  20.83
H   4.34  16.79  14.90
H  24.28   9.68   7.16
H   6.10  32.95  16.03
H  32.38  30.56  15.49
H  13.53  21.81  30.82
H  25.86  15.27  17.90
H   7.91  20.27   3.04
H  22.14  13.27  14.86
H  11.28  17.04  28.72
H  19.10  16.91   3.13
H  16.09   9.66   1.42
H  18.72  13.62  31.46
H  21.25  16.90   0.13
H   5.28  12.15  10.37
H  24.24  19.51  21.69
H  13.41   6.53   6.21
H   7.92  13.70   0.97
H  25.21  26.30  26.31
H   6.33   9.36  11.51
H   0.51  11.80  21.63
H   3.79  22.57   3.09
H  31.90  16.10  18.97
H  13.96  27.28  10.04
H  24.88  21.21  14.66
H   3.31   3.16  23.00
H   3.36  24.04  21.40
H  22.46  10.20   4.25
H  27.20  15.05  24.40
H  13.14  16.08  16.34
H   6.60  10.06   0.12
H   2.21  20.17   4.98
H  16.83   6.36   0.83
H   3.58  19.61  22.96
H  20.63  24.54   4.91
H  21.54  22.78  31.32
H   4.81  20.51   9.01
H  17.56  30.92  30.50
H  22.09  30.40  16.34
H   9.54   6.53  27.67
H   0.61  21.74  16.45
H  26.56  21.17  11.96
H  26.49  18.15  10.46
H   6.94  25.32   5.79
H  13.59  27.54  18.08
H  15.35  31.95  32.85
H  24.70   3.63  19.59
H  32.84  12.90   1.76
H  19.16   6.59  30.79
H   2.02  32.76  24.18
H  13.63   2.18  32.48
H  18.51   8.79  15.82
H   7.72  32.53  19.09
H  27.63  11.01  29.94
H   5.56  32.79   1.37
H  13.41  28.10  13.27
H   4.29  16.50  24.29
H   3.51   8.92  23.75
H  32.48   5.36  32.91
H  15.40  26.42  20.68
H  30.91  25.99   9.95
H  11.28  17.59  13.39
H   8.23  16.59  15.69
H  18.82   3.43  30.70
H  32.70  29.50  12.15
H  24.11  23.89  13.33
H   7.48  30.42   9.10
H  30.22   2.62   5.83
H  23.72  28.28   9.20
H  15.44  14.77  14.33
H  24.96  18.70  27.76
H   7.98  27.70   7.82
H  14.47  28.21  26.60
H  15.72   3.48  19.11
H  14.08  25.32  32.42
H  20.92  14.15  22.24
H   9.49  21.42  32.50
H  18.40  20.92  18.90
H  13.74  32.81   6.38
H   5.51  11.35  29.26
H  24.83  17.72  31.20
H  21.93  20.79   1.16
H  16.10  30.78   9.26
H  16.30  15.11   4.13
H  32.79   2.05  25.60
H  13.82  14.89  28.50
H   0.33   2.10   0.10
H   7.94  14.59  27.77
H  31.27  12.17  16.89
H   8.43   4.43  19.05
H  30.99  23.42   3.25
H   4.92   9.27  26.66
H  30.61   0.35  10.13
H   0.37   0.63  27.33
H  28.40   2.22   3.22
H  16.55   4.84  14.56
H  20.22  24.45   0.96
H  18.09  12.97  15.25
H   6.82  28.33  15.70
H   8.67  25.70  27.03
H  10.17   8.31   7.39
H  31.74  21.48  26.49
H  22.94  22.45  28.25
H   0.73  12.53  14.03
H  18.87   8.72  22.54
H   6.09  19.19  30.33
H   9.45   6.90  17.18
H   2.32  20.51  29.04
H  18.12  23.09  10.17
H  14.04  11.37  11.42
H  30.00  30.02  10.26
H  32.11  19.11  23.31
H   6.71  25.23  24.12
H   3.81   3.28  19.85
H  21.71   2.62   1.23
H  32.40  28.40  29.14
H  22.96  29.92   5.85
H   4.07  17.05  30.12
H   1.98  25.64  12.20
H   2.57  12.94   4.24
H  10.56  15.52   1.55
H  13.96   7.64  29.87
H  18.32   0.08   0.18
H   7.67  14.04  24.47
H  24.60   7.58   3.41
H  21.59   4.49  20.83
H   0.98  15.61  12.07
H  24.61  29.65  16.43
H  22.32   3.14   9.25
H   7.65  29.69   1.52
H  13.42  20.32  23.69
H  25.65  13.18  16.23
H   9.51  32.31  12.27
H   3.68  30.10  16.33
H  11.91   0.79  24.45
H  14.58   7.74  17.57
H  31.50   8.48  18.25
H  11.32  31.96   0.74
H  14.24   4.37   2.10
H  23.72  15.61  28.69
H  19.21  23.31  28.78
H  17.33  12.83  10.10
H   6.50  15.58   7.53
H   3.16   0.07  18.42
H  27.11   4.38  23.45
H  21.33  23.10  15.25
H  26.27  15.03  11.14
H  12.52   4.75  17.54
H  31.21  17.47   6.68
H  29.25  20.72   4.66
H  22.72   0.17  14.94
H  21.98  11.50  25.80
H   0.92   4.65  12.23
H  30.35   5.34   3.77
H   5.85  30.73  20.83
H  27.59  10.74  21.91
H  32.30  27.66   6.13
H  10.45  28.27  10.13
H   9.48  25.60  15.97
H  32.14  12.22   9.75
H  29.17  26.20  15.83
H  18.82  23.21  25.45
H  12.03  21.74  10.32
H  12.41  23.18   1.35
H  27.16  15.25  31.01
H  18.82  27.07  12.81
H  13.66  10.30   7.28
H  29.96   7.47   6.74
H  25.72  24.21  20.43
H  22.94  28.68  27.38
H  16.44   8.68  19.96
H  20.15  13.11  28.35
H   2.97  26.84  31.73
H  30.02  22.75   9.43
H   1.54  17.37  28.36
H  25.72  28.99   1.69
H   6.35  13.94   4.33
H  17.53  31.67  27.02
H  31.66  15.70   3.78
H   6.90  19.05   6.38
H  23.15  16.41   9.91
H  25.32   2.62  29.87
H  21.23  26.38  29.93
H  12.57  13.22  21.83
H  21.85   4.66  24.57
H  32.86  27.90  25.44
O  20.82  31.50  10.42
O   5.54  32.41   7.95
O   8.78  23.04   6.47
O  11.43  25.54  20.52
O  10.89   7.62  32.61
O  28.44  17.60  16.88
O  21.41  25.36  21.22
O   6.31  16.34  21.41
O  24.94   9.98  25.62
O  10.63  11.97   3.33
O  14.91  11.12  27.51
O  28.43  24.60  19.92
O   3.85  28.44  20.08
O  25.95   0.59   2.78
O  27.01  23.05   5.07
O  28.14  25.99  28.13
O  24.15   0.82  18.68
O   4.77  14.54  30.68
O  18.78  15.95   0.45
O  30.92  18.43  20.06
O  19.36  12.79  20.11
O  31.94  27.95  16.77
O  18.61  32.74  12.86
O  20.68   1.53  29.58
O  19.46   0.39  18.23
O  23.30  13.59  12.44
O   3.56   5.25  25.73
O  19.45  10.64   3.91
O  28.14   8.84   3.39
O  13.80   8.97   9.80
O  28.78  22.52  11.98
O  10.17  24.71   2.29
O  28.42  12.01  17.87
O  13.41  15.73   0.91
O   3.28  20.10  26.44
O  26.74  27.23  11.36
O   4.58  17.29   2.94
O  31.92   9.58  32.45
O  28.27  13.98  14.91
O   2.78  23.56  30.66
O  28.16  11.83   6.53
O  32.95  30.57   6.94
O   6.83  22.36  29.12
O  15.95   3.34  29.95
O  27.24  28.28  22.34
O  15.07  17.76  30.96
O  30.82  23.43  31.21
O  27.89  17.24  13.50
O  22.73  13.57  17.25
O   7.10  19.14  18.20
O  29.40  25.09   5.00
O  26.39   5.28  10.94
O  13.98  24.33   5.59
O   3.11   1.07   3.98
O  21.81   0.12   8.97
O  24.32  21.55  31.50
O   2.13  20.11  20.20
O  16.66   8.56  13.23
O  16.27   0.04  20.39
O  23.04  28.51  23.61
O  15.16  12.67   2.94
O  20.80  10.59  11.44
O   6.84   4.96  11.17
O  23.87   5.00   4.18
O  12.34   5.37   3.70
O   4.33  21.70   6.57
O   2.72  12.85  19.42
O   8.16  20.26  28.52
O  12.94  29.74  32.90
O   9.94   4.41  15.41
O  31.51  12.96  27.94
O  27.12   5.11  19.37
O   1.82   8.00  18.60
O   7.17  18.89  14.68
O  21.72  25.61  12.22
O   0.80   9.35   7.55
O   3.85  16.02   2.08
O  17.32  25.62  29.32
O   0.92  31.71  13.62
O   5.93  10.19   5.49
O   4.08  32.28  22.40
O  15.52  16.51  22.78
O  10.01  29.91   8.01
O  18.69  23.38  17.18
O  24.57   5.42  24.33
O  12.63  32.68  28.87
O  23.53  14.26   4.53
O  31.68  14.75   8.15
O   3.26   5.24   8.95
O   4.71  22.13  23.22
O  17.84  25.61  14.99
O  16.02  10.28   6.15
O  23.33   6.23  28.79
O   4.17  15.32  10.42
O   2.85  26.75   5.76
O  12.90  30.26   4.61
O  31.16  11.42   3.09
O  28.64  21.45  27.40
O  13.03  10.37  16.04
O  11.13  14.88  26.98
O  32.39  21.71  23.94
O   8.06   7.49   1.58
O  15.71   4.46   5.64
O   0.34  19.48  14.35
O   7.71  29.92  30.60
O  14.90  20.30  10.95
O   1.57   1.81  16.88
O   3.58  17.86  18.27
O  18.32  28.93   1.83
O  17.83   1.75  23.77
O   5.43  22.16  14.23
O   2.42  25.98  26.61
O   7.85   0.94  21.99
O  14.43  25.14  12.01
O  11.89   7.99  27.39
O   1.33   1.84   8.37
O  11.62  11.69  16.12
O  15.22  29.47  16.75
O  26.47  13.78   8.61
O   3.23  11.72  13.19
O  18.59   5.91   9.53
O  30.73   3.75  21.50
O  22.50  20.52  13.78
O  23.15  20.55  25.92
O  14.82  21.60  13.87
O  15.71  23.53  25.28
O  15.08  15.23  17.96
O  10.19  20.95  19.98
O   8.21  29.37  18.83
O  27.22   2.67  14.86
O   7.08   5.52  24.83